/*--------------------------------*- C++ -*----------------------------------*\
| =========                 |                                                 |
| \\      /  F ield         | OpenFOAM Extend Project: Open source CFD        |
|  \\    /   O peration     | Version:  1.6-ext                               |
|   \\  /    A nd           | Web:      www.extend-project.de                 |
|    \\/     M anipulation  |                                                 |
\*---------------------------------------------------------------------------*/
FoamFile
{
    version     2.0;
    format      ascii;
    class       volScalarField;
    location    "0";
    object      epsilon;
}
// * * * * * * * * * * * * * * * * * * * * * * * * * * * * * * * * * * * * * //

dimensions      [0 2 -3 0 0 0 0];

internalField   nonuniform List<scalar> 
2916
(
3.712158393
2.722603002
1.739035061
1.137920893
0.6799731381
0.472549263
0.5024179645
0.4781470625
0.329553114
4.219540979
3.1466673
2.04535374
1.376537091
0.8680220735
0.6230364101
0.6071709375
0.5216133541
0.3475761786
5.729377584
4.324597276
2.746756442
1.769895351
1.116505619
0.7863120811
0.6921656277
0.5513338044
0.3630462143
7.220904363
5.090763636
2.918301666
1.735952825
1.051638007
0.7310336083
0.6326427519
0.5175027378
0.3498861129
6.685357162
4.365873643
2.327437197
1.419330643
0.8946488353
0.6335525714
0.5489198282
0.4639054592
0.3210768446
5.060679139
3.387495246
1.947037448
1.316414455
0.9176647563
0.6713246044
0.5477754644
0.4346126439
0.295819997
4.186869044
2.981542694
1.869858504
1.327811867
0.9979086665
0.7706384849
0.6007198368
0.4335109591
0.2803624571
3.799024034
2.714130094
1.753095186
1.321399035
1.080283203
0.8941497702
0.6912760461
0.4638642493
0.282816009
3.398397229
2.448097375
1.644168732
1.325186213
1.169559635
1.030327726
0.8063704135
0.5192861604
0.3041432983
4.983154461
3.621103084
2.206415169
1.390282779
0.8428293093
0.5912453428
0.635370551
0.5693784573
0.3063030776
6.646287541
4.954181694
3.100766396
1.990831078
1.239009734
0.8555224167
0.8055227983
0.6357747683
0.3244911982
10.76541901
7.925413146
4.764937928
2.857772955
1.715766691
1.126517
0.9365189108
0.67680782
0.3377247571
14.49981904
9.710661253
5.116949165
2.74448114
1.525138301
0.9780705687
0.8121859901
0.6139200479
0.3201758775
13.20336156
7.939499963
3.655833715
1.937483164
1.09442112
0.7220699322
0.6337149138
0.5203557412
0.2872728749
8.965785323
5.345036514
2.521248646
1.501569569
0.9641059575
0.6706209162
0.5727790884
0.4605326988
0.2568234503
6.222045426
4.015694155
2.136556778
1.354113124
0.9468937783
0.7028344767
0.5764652943
0.4309757344
0.2339097687
4.982637647
3.281805095
1.832945861
1.245219384
0.9613496718
0.7748087257
0.625898586
0.4349841679
0.2263660849
4.151922718
2.762366453
1.615157069
1.19439325
1.016224714
0.8813704947
0.7118806797
0.4681811422
0.2347684818
4.776924086
3.463675077
2.142174621
1.418545564
0.9301664483
0.639344391
0.6019097153
0.503339275
0.2575594066
6.904125571
5.213372163
3.361491335
2.226638721
1.409189294
0.9207726171
0.8047424419
0.6122429909
0.2967305213
11.31714294
8.494942591
5.305110158
3.257310057
1.942614971
1.209296939
0.9732710484
0.6901490068
0.3257081434
14.76730575
10.22505906
5.709885432
3.144076005
1.7390251
1.045333829
0.8259532175
0.6019005017
0.2964354346
13.41398645
8.385508273
4.119221249
2.186014757
1.218270314
0.7466317709
0.6049634715
0.469312564
0.2450470472
9.404858275
5.65160114
2.668741195
1.509880793
0.934966081
0.6185168415
0.5079038068
0.394173426
0.2079329979
6.483454511
4.015303587
1.98492565
1.170401827
0.7793535044
0.5592988437
0.4665566944
0.3537180435
0.1841474811
4.892106374
3.042552427
1.533641211
0.9549187919
0.7009063853
0.5558241397
0.471438383
0.3448113069
0.1752024858
3.87467343
2.404118736
1.238472033
0.8349125971
0.6853556909
0.5965951039
0.5126755669
0.3612034482
0.1785776794
3.262801411
2.382330822
1.547932992
1.142506165
0.8598818851
0.6236274377
0.5024382078
0.3760417625
0.2074647456
4.814924604
3.779297124
2.644396794
1.949458757
1.35945485
0.8949879885
0.6967026631
0.5026511056
0.2639193697
7.516350534
6.041328777
4.195784437
2.883216267
1.860257979
1.147241723
0.8631511669
0.6042469892
0.3099429234
9.207631894
7.051020186
4.52755564
2.834793868
1.727773565
1.033131643
0.7520808038
0.5242288786
0.2774001274
8.406308677
5.903408698
3.398561865
1.999400302
1.221228806
0.751256422
0.5433389066
0.3834095562
0.2130650034
6.381575211
4.154644978
2.180479661
1.270192476
0.8185352135
0.5416251096
0.4086447932
0.2967138266
0.1700194826
4.67267525
2.93070845
1.471625909
0.8675116773
0.5889036349
0.4214760942
0.3372857571
0.2524064983
0.1471057848
3.540604926
2.172644693
1.068920342
0.6544371591
0.4845829231
0.3884181417
0.3285922326
0.2435013347
0.1393641687
2.803421038
1.693868209
0.8236319533
0.5307685877
0.4357837302
0.3920739923
0.3479595982
0.2510644307
0.1393743509
1.936841651
1.389951868
0.92359318
0.7584543134
0.6789525471
0.5772406832
0.4589397192
0.3142170296
0.1753423139
2.587697058
2.03923412
1.532015385
1.321139671
1.128125828
0.8745025924
0.6577470767
0.437151421
0.233466788
3.662258477
3.053790151
2.378211059
1.981016998
1.580414168
1.134925346
0.8217691897
0.5393882291
0.2838549948
4.290968475
3.488419055
2.563150675
1.97296312
1.500858853
1.051974557
0.7486998267
0.4865959459
0.2598186075
4.008235332
3.01485493
1.982901395
1.394458124
1.036257677
0.7414923433
0.5359415355
0.352542842
0.1964405928
3.281397967
2.262748807
1.323712575
0.8704447582
0.6425631159
0.4721553794
0.3527513479
0.2442745892
0.1468377288
2.624388023
1.702578781
0.9207844069
0.5957248974
0.4513762551
0.3480611937
0.2695093739
0.1916554588
0.1201439053
2.162346818
1.356577329
0.7048430761
0.4665543013
0.3808360231
0.3300515548
0.2731126431
0.186149765
0.1101677242
1.847262354
1.134788767
0.5730961203
0.3891179212
0.3435542767
0.3352893207
0.3000059161
0.1994855013
0.1095479223
1.160978648
0.7924900248
0.5073486384
0.4411720639
0.4517691811
0.4511452246
0.3931352012
0.2726979562
0.1550280807
1.272573824
0.9195603411
0.6643695889
0.6443790459
0.6878100801
0.6833320361
0.5813331316
0.3899706164
0.2098729085
1.450777137
1.117821339
0.8880157134
0.8971822191
0.9392454479
0.8963040538
0.741106989
0.4884835403
0.257935571
1.565036907
1.210491366
0.9381873915
0.8977857738
0.8977830657
0.8328937225
0.6857675917
0.4542129503
0.2430602285
1.543028411
1.132923193
0.7893690548
0.678396595
0.6399140874
0.5827823769
0.4849402474
0.3300961864
0.1864879819
1.447623416
0.9989962646
0.6222282631
0.4852325535
0.4345757952
0.3853394257
0.3156880759
0.2184836548
0.134253615
1.350742896
0.8914722259
0.5147011939
0.3840283643
0.343604943
0.3117245189
0.2548449171
0.1695188155
0.1047397096
1.269477778
0.8127448471
0.4470703184
0.331367387
0.3109963049
0.3125843737
0.2772026075
0.1788669158
0.09784831648
1.200352246
0.7506391949
0.3974218696
0.294680729
0.2901707362
0.3212230313
0.3190069007
0.2195575948
0.1090361905
0.815483086
0.5302292995
0.3192776377
0.2773857039
0.2982919943
0.3326204998
0.3325889243
0.252534983
0.1464364523
0.8305994232
0.5464873714
0.3386359848
0.3071921703
0.3559487174
0.434166562
0.4576203292
0.3484328484
0.1941535019
0.8520236688
0.5687828856
0.3642834838
0.344272351
0.4186026214
0.5320855144
0.5701587299
0.432115503
0.2367059043
0.8691488425
0.5819499033
0.3714818102
0.3444623989
0.4054414392
0.5020795397
0.5372186084
0.4119592671
0.2290749752
0.8775020831
0.5816073389
0.3578930992
0.3124816611
0.3411067463
0.3933299686
0.4097546298
0.3187195042
0.1843881687
0.8792008838
0.5740776628
0.3389549606
0.2812723447
0.2917471149
0.3164650887
0.3114384087
0.2351263883
0.1391646889
0.8768988452
0.5638892892
0.3213428747
0.2589613276
0.2662706047
0.2905474391
0.282843862
0.2036119491
0.1141604988
0.8713386882
0.5519231277
0.3049383658
0.2420675651
0.2537391282
0.29446571
0.308985973
0.2276524589
0.1147164424
0.8630998662
0.5389435882
0.289749134
0.2280475148
0.2439700561
0.2981569128
0.3446198938
0.2759820123
0.1313713609
0.6169438657
0.4023428476
0.24353156
0.2142545802
0.2384311808
0.2851294707
0.3211180261
0.2672967991
0.1509166483
0.6187435932
0.4050029413
0.2463560018
0.2176460891
0.2459829861
0.3100215115
0.3740611181
0.3247214959
0.1860851048
0.6219717517
0.4087610194
0.2497707435
0.2214090195
0.2540193626
0.3346051038
0.4235910882
0.376988095
0.2184382162
0.6259977603
0.4121305702
0.2513370874
0.2211743328
0.2525566648
0.3297477797
0.4157221809
0.3715258552
0.2158925705
0.6302157704
0.4144038815
0.2503214513
0.2164767577
0.2427263036
0.3044729235
0.368521642
0.3237448144
0.1864936975
0.6341921143
0.4153847049
0.2472233551
0.2095008729
0.2311790165
0.2821497669
0.3278809213
0.2781472902
0.1557199609
0.6375601193
0.4150634008
0.2426737417
0.2017545554
0.2209004152
0.2695855687
0.3137473811
0.2631425921
0.1400544446
0.640051784
0.4136858989
0.2376135202
0.19482214
0.2137623479
0.2660282517
0.323673752
0.2794290834
0.1411598657
0.6416804811
0.4118844256
0.2333247906
0.1903952272
0.2105800771
0.2655615719
0.3354767762
0.2992769247
0.1472130322
0.476626348
0.3319814645
0.2164172308
0.1916832483
0.2143333805
0.2608906378
0.3110339294
0.2738454062
0.1518633732
0.4757253711
0.3318011864
0.2165141072
0.1917390264
0.2155430949
0.2666838638
0.3282918149
0.2993180713
0.1723469517
0.4749596269
0.3318009549
0.2166241335
0.1915814192
0.2164841072
0.2721714409
0.3443173728
0.3226869084
0.191514828
0.474855234
0.3320504874
0.2163790031
0.1903061914
0.2147114886
0.2705512892
0.3428074028
0.3211083539
0.1900655493
0.4753710314
0.3323678764
0.2154499303
0.187478087
0.2098664882
0.2623444921
0.3270121338
0.3001791414
0.1730158431
0.4763938057
0.3326097644
0.2138305984
0.1835438356
0.2034587363
0.2518969038
0.3089444494
0.2779383973
0.1553083585
0.477767036
0.3327245545
0.2118024564
0.1793812616
0.1973129556
0.2429308821
0.2978562419
0.2671709789
0.1450470372
0.4793346655
0.3328001547
0.2099440838
0.1762937456
0.1937403215
0.2388214877
0.2960961434
0.2679776589
0.1424839421
0.455392532
0.3244855062
0.2095283457
0.1774640242
0.1992407968
0.2519354739
0.3238535635
0.3253421462
0.2731829167
3.015829822
2.213447408
1.552879629
1.320112174
1.228106409
1.130179736
0.9023663509
0.5742794054
0.3313925046
2.684765344
2.007072829
1.453357927
1.268685636
1.200922796
1.120927125
0.9092277834
0.584643912
0.3402798282
2.440792198
1.849058848
1.357305951
1.182278987
1.09980769
1.008854127
0.8208117518
0.5386464503
0.3214036014
2.315995334
1.774083465
1.305092662
1.113724857
0.9963285619
0.8780629065
0.7072113336
0.4732465916
0.2897438352
2.310590267
1.784425174
1.303195832
1.076310307
0.9141703924
0.7635724612
0.6052550354
0.4139008055
0.2590149953
2.407945541
1.862186859
1.335697451
1.056652217
0.8427998696
0.6613788023
0.519684819
0.3703599604
0.238784868
2.595546111
1.996336639
1.396911909
1.053862402
0.7837528016
0.5769900203
0.4606930246
0.3535659213
0.238137472
2.86847163
2.184822862
1.489270957
1.071304115
0.7384319447
0.5128781281
0.4330790791
0.367087921
0.2576942499
3.11584476
2.354626732
1.576237599
1.095592916
0.7109496455
0.4751273824
0.4291961844
0.39256461
0.2809668794
3.518630441
2.385979134
1.470658737
1.167953946
1.063565353
0.9686081585
0.7898639148
0.5063865695
0.2490155776
3.039659939
2.106799432
1.355892653
1.119838629
1.045537285
0.9659047007
0.7949354403
0.5109211944
0.2520673225
2.718337759
1.921848518
1.269001628
1.052970615
0.9678126857
0.8762206801
0.7225954937
0.4746926828
0.2393017297
2.560515276
1.844260651
1.232832806
1.003553393
0.8846763339
0.7666551497
0.6299276145
0.4270385218
0.2208748285
2.552674329
1.86816322
1.249813604
0.9823979889
0.8179317802
0.6693581547
0.5472912567
0.3844807229
0.2032859984
2.68193864
1.98094137
1.310308814
0.9835316721
0.7658538708
0.5881624604
0.483421255
0.3569412763
0.1932088003
2.945632651
2.179442145
1.414919783
1.012180168
0.7361505128
0.5332527147
0.4526353283
0.359635824
0.2000148914
3.354444106
2.47587388
1.577743802
1.081462345
0.7372395912
0.5107463036
0.4618160854
0.3975457965
0.2253828555
3.740308404
2.754851338
1.736171595
1.158549394
0.7550939837
0.510661995
0.4895283284
0.4431694663
0.2524547005
3.164155721
1.973808717
1.051182255
0.7637300734
0.6812893926
0.6297787484
0.5483126351
0.3792229027
0.1847000593
2.659660213
1.677818477
0.9246871209
0.7049784201
0.6514588315
0.6119805965
0.5368504005
0.3740550929
0.1836162926
2.330145778
1.495238932
0.8515217102
0.6614572958
0.605561708
0.5555744666
0.4879415602
0.3505796989
0.17661658
2.161364528
1.420749506
0.8350410685
0.6457639107
0.5687228464
0.4973643121
0.4369981182
0.3279419962
0.1699966317
2.139828325
1.44609
0.8716527712
0.6591521687
0.5485482672
0.4508149103
0.3947462267
0.3074975366
0.1624753417
2.261408202
1.566372252
0.9573877542
0.6997482409
0.5457736119
0.4194653503
0.3651494219
0.2915558248
0.1552848911
2.528173993
1.781414613
1.093776322
0.7728492319
0.5692654272
0.4146181614
0.3623823677
0.2956220406
0.1576988385
2.94806303
2.100798362
1.293452612
0.8927518329
0.6325764341
0.447200572
0.396308359
0.3297979936
0.175716653
3.343909298
2.398592984
1.481746688
1.012094864
0.7039648658
0.4923839311
0.4411920965
0.3711324585
0.1972509139
2.30096762
1.375098119
0.663125329
0.4459870149
0.3944070616
0.3816124982
0.3531407894
0.2562397916
0.1415801837
1.94662275
1.1552302
0.5550605906
0.3843071567
0.3512831159
0.3457643068
0.3289922431
0.249939284
0.1418948606
1.706742039
1.016152827
0.4969419363
0.354252702
0.3243269923
0.3106961481
0.2956115852
0.2349850293
0.1380438552
1.570418968
0.9532521831
0.4876087711
0.3572882371
0.3201988684
0.2914957186
0.2708886703
0.2206007454
0.133065358
1.536320182
0.964727725
0.5233910664
0.3890700512
0.3347984675
0.2841697046
0.2542612793
0.2100595385
0.1287650831
1.607566916
1.05022327
0.6015634016
0.4463558263
0.3643962013
0.2858645481
0.245254616
0.2035972873
0.1249390816
1.783424838
1.205476966
0.7174346151
0.5265612345
0.4106874944
0.3043967292
0.2532466919
0.2069103929
0.1249104152
2.056492528
1.424210386
0.868728437
0.6323564479
0.4830311129
0.3527933467
0.2889710427
0.2286472483
0.1344678806
2.306827041
1.618712308
1.00079454
0.726962234
0.5540957714
0.4075080916
0.3320381909
0.2567734769
0.1482002541
1.620584768
0.9778385682
0.4790918114
0.3278864811
0.301472557
0.3126828597
0.3024712129
0.2148391665
0.1168371553
1.449288093
0.8608653738
0.4103632739
0.2806784508
0.2603295001
0.2702935075
0.275760923
0.2167617395
0.122617139
1.321261026
0.7790867708
0.3700828364
0.2581096126
0.2403268911
0.2424383807
0.2452409449
0.2004165913
0.1179424215
1.237300234
0.7355695564
0.361105961
0.262333448
0.2445213408
0.2371441512
0.2259823224
0.1794216442
0.1087089517
1.204156929
0.7345208201
0.3833987903
0.2903183727
0.2671385021
0.2435815321
0.2131091326
0.1624908011
0.1015604445
1.227799301
0.7771285818
0.4339755659
0.3367406096
0.2997793795
0.251205869
0.2013837918
0.1515533808
0.09801043143
1.30655243
0.8573040025
0.5043131553
0.3928457144
0.3363423731
0.2631194537
0.2003471826
0.1516075338
0.09924546374
1.429834436
0.9636121499
0.5846875792
0.4528287746
0.3795343549
0.2922513671
0.222320313
0.1668188728
0.1069895035
1.54010645
1.052709826
0.6477938507
0.4993556656
0.4172671541
0.3262391977
0.2529886427
0.1874629037
0.1171968384
1.139228245
0.6980016801
0.3561579121
0.2612846341
0.2603818967
0.2969014409
0.3237454578
0.2514488348
0.1254618059
1.083544474
0.6523237927
0.3223519612
0.2333789354
0.2302500973
0.2565762855
0.2899921611
0.2448353415
0.1276990491
1.033238329
0.6151759621
0.3001594396
0.2191096284
0.2161279514
0.2339293672
0.255565299
0.2148965531
0.1157150582
0.9923877602
0.5910912478
0.2935802584
0.2219095897
0.2215010152
0.2350459074
0.2399613677
0.1892772165
0.1030525328
0.9679802599
0.584982804
0.3042536955
0.2408974483
0.2426500322
0.2488575429
0.2318253494
0.1678173972
0.09279855838
0.9657175112
0.5986849168
0.3299957665
0.270746542
0.2694681989
0.2579507615
0.2141771863
0.1440164809
0.08424164686
0.9860097695
0.6286636406
0.3640583688
0.3025786522
0.2925744885
0.2599011983
0.19650879
0.1292996086
0.08174222085
1.024059688
0.6683474029
0.3995811827
0.3312017307
0.3127197359
0.2684029944
0.1982500105
0.133180551
0.08739171241
1.059370724
0.7009414012
0.4255665704
0.3508295325
0.3278897229
0.2817083992
0.2123806507
0.1457990851
0.09569572894
0.8528108702
0.5256797203
0.2758613243
0.2150446728
0.2297359059
0.2796393138
0.3398539517
0.2927829487
0.1403775973
0.8402226495
0.5121342654
0.2635276014
0.2037914297
0.2149841241
0.2525184364
0.3025298378
0.2653653913
0.1302954083
0.8249937343
0.4987934707
0.2543771811
0.1976463211
0.2078115048
0.2378865327
0.2711217724
0.2293338305
0.1135320549
0.8085346017
0.4877211764
0.2507864064
0.1993015798
0.2116383784
0.2405632481
0.2605308855
0.2074194123
0.1017796484
0.7942049725
0.4817521635
0.2543317298
0.2093169955
0.2259573608
0.255543212
0.2613564638
0.1933421532
0.0940542127
0.7854317276
0.4824738082
0.2641898988
0.2244788875
0.2434493585
0.267005371
0.2529347934
0.1740099076
0.08660491785
0.7837274804
0.4890463117
0.2770537436
0.2391060001
0.2557818519
0.2672397033
0.2350021988
0.1547698191
0.08214675196
0.78849488
0.4993757474
0.2900133908
0.250745526
0.2635941946
0.2667768398
0.2268468366
0.14964284
0.08513341682
0.794842697
0.5083770299
0.2993558783
0.2582973549
0.2689197868
0.2700843777
0.2303169506
0.1552912891
0.09186191985
0.6425100842
0.4100997
0.2303768757
0.1886050443
0.2098301754
0.2616981436
0.3289148322
0.2954666227
0.1446801666
0.6421488317
0.4080264321
0.2282136031
0.1879674777
0.2092087593
0.254934947
0.3091826616
0.2719302495
0.1325051573
0.6399274657
0.4051938046
0.2264340503
0.1879006138
0.2087333826
0.2494817515
0.2914149901
0.2482720025
0.1194071948
0.635707739
0.4018367313
0.2255897739
0.189424191
0.2106613361
0.2496502946
0.2838050463
0.2344522509
0.1112865151
0.6302677982
0.3988640387
0.2264953748
0.1934735509
0.216654196
0.2572940765
0.2866023588
0.2295252142
0.1081265692
0.6248562041
0.3971043409
0.2291739508
0.1991704134
0.2242704247
0.2658398029
0.2887385912
0.2240419097
0.1060932323
0.6204929854
0.3967439872
0.2326742839
0.2042630373
0.2291581617
0.2681460318
0.282724857
0.2137587052
0.1037892743
0.6176751749
0.3975405145
0.2361481917
0.20785357
0.2313381709
0.2676032016
0.2772092162
0.2078380723
0.105277425
0.6163955601
0.3986284671
0.2386496858
0.210033618
0.2327183848
0.2684216269
0.2776183707
0.2095511629
0.1100537122
0.4184658881
0.3120434413
0.2105859454
0.182394801
0.2117905513
0.2766031655
0.3677973284
0.4136304046
0.4973873804
0.4068024629
0.3082042015
0.2119404465
0.1871822536
0.2216869605
0.2909146676
0.3833459426
0.438458376
0.5841606626
0.4075216917
0.3085372339
0.2132692583
0.1910060054
0.2272690189
0.2936758203
0.3760985885
0.4222237906
0.5724565204
0.4075689859
0.3085526497
0.2145593751
0.1941453062
0.2301103037
0.2918164173
0.3661548837
0.4094551918
0.5653585433
0.4069008617
0.3083012651
0.2158679612
0.196795047
0.2316085763
0.2898075623
0.3602260871
0.403142411
0.5626636141
0.4056764069
0.3079424953
0.2171807853
0.1988610328
0.2321900953
0.2884727514
0.3574061151
0.4001651118
0.5620245253
0.4041423697
0.3075830876
0.2182914856
0.1999410737
0.2313691219
0.2862050504
0.3538461938
0.396408137
0.5615527704
0.4025280708
0.3072583434
0.2190190245
0.1999581446
0.2294287479
0.2834057757
0.3507265165
0.3940046242
0.5626870373
0.3884348592
0.3028408252
0.2198336821
0.2005307642
0.2296321407
0.2858968537
0.3600832394
0.4216759892
0.6477017382
0.2082196347
0.2356118577
0.2109630519
0.1912503675
0.2308021454
0.3265956306
0.4956879446
0.758936697
1.497858088
0.1956085459
0.2312638477
0.2120730094
0.1962513066
0.2426635294
0.3459268996
0.516504576
0.777577666
1.56676134
0.1956738646
0.231326256
0.213620843
0.2016791157
0.2528797796
0.3558506573
0.5144330217
0.7585991635
1.552652179
0.1957575323
0.231605367
0.2156518146
0.2068945647
0.2593833091
0.3565218028
0.5031672516
0.7426252424
1.544980121
0.195826037
0.23205931
0.2178638676
0.2110516152
0.26189624
0.3517396497
0.4908129798
0.7313083078
1.540881254
0.195860886
0.2326386047
0.2199287576
0.2136356549
0.2610932895
0.3446123299
0.4803621402
0.7239921404
1.538755922
0.195856146
0.2332695791
0.221550748
0.2145045309
0.2579819892
0.3369765903
0.4722359472
0.7193671355
1.537732516
0.1958119795
0.2338633964
0.2225401652
0.2138467442
0.2535792763
0.3298649014
0.4661800553
0.7164021289
1.537445915
0.1827648204
0.2299474349
0.223399151
0.2133716986
0.251137909
0.3284823062
0.4725291415
0.7435277941
1.627812677
0.1348076359
0.2179360551
0.2280338931
0.2076202458
0.2439124252
0.3516222443
0.5664417624
0.9602064597
2.101409266
0.1349054401
0.2178759585
0.2283508011
0.2110597405
0.2537956643
0.3680043193
0.5781694071
0.9488522747
2.087397146
0.1344279532
0.2174343547
0.2292518863
0.2161001072
0.2655161563
0.3821007296
0.5808068265
0.9316263643
2.073826386
0.1340675586
0.2172969047
0.2308372966
0.2214828199
0.2739534186
0.3858767821
0.571474278
0.9151446818
2.065889965
0.1338483752
0.2174748629
0.2328208378
0.226069659
0.2779764608
0.3823450631
0.5585891717
0.901882025
2.060867704
0.1337878315
0.2179443471
0.2348462235
0.229125149
0.2779855044
0.3749056579
0.5459754001
0.8916325458
2.05730716
0.133889666
0.2186394361
0.2365870311
0.2304061057
0.2750777953
0.366021158
0.5349437756
0.8835982317
2.05447978
0.1341414121
0.2194627051
0.2378203751
0.2300602101
0.2704072165
0.3570717948
0.5255097505
0.8767125709
2.051813772
0.1345213596
0.2202962555
0.238440986
0.2284637312
0.2649341138
0.348735649
0.5173746053
0.870309663
2.049045549
0.1727494522
0.259054588
0.2701479526
0.2385102368
0.2554916106
0.3486375986
0.558237949
0.9527214619
2.100491718
0.1732326726
0.2594962185
0.2701990483
0.2407004946
0.2642658376
0.3657720487
0.5727667397
0.944904824
2.088326783
0.1726728864
0.2591112615
0.2703597652
0.243645619
0.2745342963
0.3809294953
0.5784252536
0.9309359528
2.076140729
0.172350786
0.2589753376
0.2709326014
0.2470253866
0.2821434897
0.3858676409
0.5705505635
0.9144315643
2.067605898
0.1722712052
0.2590867904
0.271799089
0.2500217254
0.2860336261
0.3834356075
0.5578920669
0.8996304036
2.061369671
0.1724231661
0.259436894
0.2727890452
0.2521016584
0.2865569739
0.3769379584
0.5446534479
0.8871619781
2.056426255
0.1727788956
0.2599951952
0.2737313997
0.2530916286
0.2846759112
0.3687757796
0.5324538003
0.8766668922
2.052217901
0.1732942878
0.260700191
0.2744969824
0.2531045493
0.2813713237
0.3603000714
0.5215448013
0.8672942236
2.048216457
0.1739387229
0.2614581716
0.2749956769
0.2524095429
0.2774371551
0.352208618
0.5118442944
0.8585414554
2.044190885
0.2326329175
0.3371470442
0.3542522957
0.3047035002
0.2892160622
0.3535103282
0.5497844523
0.9418597483
2.097372118
0.2341819674
0.3387980876
0.3536071497
0.3034137913
0.2942215134
0.3698307828
0.5662754236
0.9365457957
2.086316374
0.2341288354
0.3391007734
0.3521299129
0.3012506789
0.3001216217
0.3849681404
0.5751389555
0.926140457
2.075628529
0.2344619664
0.3394196586
0.3505394839
0.3000936501
0.3055178249
0.3919737339
0.570565816
0.9109853193
2.067011191
0.2350877848
0.3396921379
0.3490703499
0.2998338532
0.3096349258
0.3931259524
0.5605870314
0.8959260987
2.059957103
0.235892984
0.3399144905
0.3479270277
0.3003343775
0.3125784371
0.3909159694
0.5491047298
0.8823093884
2.054002906
0.2367595747
0.3401031748
0.3472313919
0.301489742
0.3147293823
0.3870351427
0.5377905015
0.8703183837
2.048832212
0.2375769625
0.3402543676
0.3470134711
0.3032348276
0.3163947699
0.3823639645
0.527100802
0.8593831637
2.04394661
0.2383296235
0.3403535574
0.3472083742
0.3054910513
0.3177352994
0.3773446363
0.5171614693
0.8491298169
2.039093203
0.327535677
0.4854123502
0.5230586745
0.4439909527
0.3735092734
0.3823853786
0.5478525099
0.931362603
2.093509723
0.3317729394
0.4891463739
0.5195951061
0.4347159804
0.3705145992
0.3964784328
0.5681589694
0.9318172534
2.085166918
0.3330474987
0.489911736
0.5132356365
0.4223339695
0.3688705365
0.4128657367
0.5846441382
0.9286057005
2.077149485
0.3344442725
0.4898124789
0.5063160551
0.4136698427
0.3731218286
0.4276851071
0.5897556656
0.9177971035
2.06891477
0.3356935219
0.4888294919
0.499939658
0.4098783483
0.3825033863
0.44079217
0.5885995583
0.9043156605
2.061112387
0.3365666662
0.4871611726
0.4950964856
0.4112049506
0.3956655174
0.451829772
0.5837921183
0.8907023242
2.054253718
0.3369206398
0.485102817
0.4923811119
0.4171145397
0.4108775984
0.4603305627
0.5769654639
0.8780925457
2.048345926
0.3367169188
0.4829413212
0.4919442434
0.4265933923
0.4264276699
0.4659676047
0.5690056973
0.8663538937
2.042842443
0.3361908965
0.4809902734
0.4935611751
0.438334183
0.4408437007
0.4686748467
0.5603940541
0.8551903888
2.03739568
0.4911954031
0.7953583226
0.8784069289
0.7424376346
0.5943960337
0.4999753537
0.5828729448
0.9332811639
2.092404746
0.499973766
0.7980369966
0.865510248
0.7246223166
0.5860663735
0.5159740938
0.6147268288
0.9464594634
2.089254705
0.5007506934
0.79213039
0.8479874522
0.7055969142
0.586431795
0.5466914008
0.6535784409
0.9591873762
2.086018476
0.5002542605
0.7845438664
0.8332696829
0.6999429878
0.6087351254
0.591750797
0.6864201918
0.9600855286
2.079206812
0.4983688706
0.7762649109
0.8242625854
0.7097881696
0.6490686117
0.641807412
0.7095253804
0.9528888452
2.071108149
0.4952469381
0.7685010848
0.8227155549
0.7336043524
0.6992154939
0.6873257947
0.7218730236
0.9421874137
2.063806836
0.4912974445
0.7623385723
0.8287104787
0.7670502811
0.7500143435
0.7222729904
0.7255845081
0.9310648415
2.057678474
0.4870952841
0.7585737578
0.8409972193
0.8045758063
0.7941590851
0.7446084943
0.7232871885
0.9201849254
2.051980654
0.4835882281
0.7577796559
0.8574038078
0.840596421
0.8271091968
0.7549832389
0.7167530912
0.9091634704
2.046198028
0.7249976429
1.326342349
1.48473078
1.321400408
1.228840685
1.00984504
0.825260177
1.004605725
2.105223094
0.7372958627
1.314281319
1.460480449
1.345155183
1.283832679
1.071915565
0.8942046347
1.044530614
2.110973658
0.7290988094
1.283553602
1.445572723
1.399608885
1.383547004
1.183203895
0.995329451
1.093577556
2.117539152
0.7180249216
1.257429505
1.455013114
1.492768249
1.526784862
1.325530558
1.093881118
1.124059082
2.11644314
0.7053215766
1.239435693
1.490510592
1.615629183
1.683303081
1.452208452
1.158267546
1.131928506
2.110455369
0.6926511388
1.2320167
1.548040542
1.747290896
1.813084321
1.527397702
1.182495463
1.127676724
2.104467144
0.6817534302
1.235968798
1.61864716
1.862796799
1.886350122
1.542219683
1.179167803
1.120960539
2.099732593
0.6741070672
1.250605962
1.691469456
1.941985159
1.893632384
1.509279084
1.16274355
1.114255591
2.095137897
0.6712176164
1.274224927
1.756037073
1.974267071
1.843523252
1.449499756
1.142281939
1.106294143
2.089911387
0.9419134373
1.646051888
1.799040595
1.632214249
1.642829721
1.379892462
0.9822570768
0.9747368874
2.051480801
0.9510991951
1.615378747
1.76811001
1.705094612
1.761148824
1.471343493
1.061058795
1.021388945
2.060146877
0.9325010147
1.561649155
1.764713499
1.845702864
1.962643673
1.643250556
1.192459577
1.087681013
2.073059301
0.9102672549
1.519863676
1.804933171
2.041208827
2.211285219
1.844248401
1.319243232
1.133170745
2.076948761
0.8871306819
1.49566716
1.8876898
2.26932429
2.452780604
2.001824685
1.394215915
1.14935308
2.074325953
0.8661984214
1.492322171
2.002736125
2.490513974
2.622031006
2.065328567
1.411250569
1.149913167
2.070953018
0.8502970918
1.510073202
2.132753137
2.66221007
2.676494703
2.029375987
1.391423875
1.147644815
2.068393052
0.8414285925
1.54600841
2.257536841
2.753352064
2.610798631
1.922427576
1.357486285
1.145594744
2.065578947
0.8410081412
1.595107749
2.358788319
2.752616029
2.450648465
1.784110723
1.323496863
1.141828832
2.061798104
1.037151881
1.461250493
1.495579832
1.244631114
1.136906554
0.9360442859
0.6928773758
0.7188483235
1.743174656
1.03922164
1.430110091
1.458291319
1.284466787
1.211416482
0.9850469044
0.7296850281
0.742294759
1.736298244
1.021363642
1.378932573
1.438371168
1.376184066
1.347989529
1.088405122
0.7984655101
0.7769007616
1.74542232
0.9991749363
1.334765025
1.449418869
1.508864895
1.518880276
1.212193465
0.8670833167
0.799975928
1.747775078
0.9752802605
1.303565159
1.493244919
1.668677617
1.690715801
1.315383786
0.9107394501
0.8086236447
1.746296799
0.9527781323
1.289795219
1.565801548
1.830259101
1.820884934
1.365197498
0.9235659792
0.8092283122
1.744083922
0.9346424342
1.295689531
1.657487762
1.964412697
1.877738162
1.352996923
0.9144884264
0.8080137549
1.741948465
0.9230918857
1.319381622
1.752948383
2.046437186
1.851739688
1.291509728
0.8952395072
0.8066486628
1.7394801
0.9194570586
1.356055181
1.836415663
2.064355058
1.754906855
1.203498337
0.8744049805
0.8041704128
1.73634666
0.1439866052
0.2173580521
0.2246294376
0.2142826972
0.2526507383
0.3364297761
0.5001800472
0.8272432117
1.897169808
0.1185041316
0.2092497659
0.224708257
0.2130876115
0.2512678623
0.3389257146
0.514222329
0.8731863353
2.050076925
0.1188209991
0.2094140858
0.2233160859
0.2094002957
0.2460746582
0.3335121077
0.508919582
0.8673791298
2.046910228
0.119061902
0.2092732309
0.221570533
0.2057183719
0.2412814197
0.3284458987
0.5033970492
0.8606598242
2.043137814
0.1192021837
0.2088625988
0.2196413771
0.2022261968
0.23696568
0.3237978436
0.4978951673
0.8533764535
2.038930666
0.1192305109
0.2082348807
0.2176754934
0.1990711124
0.2332693654
0.3198865247
0.4931050297
0.8464024489
2.034712075
0.1191478581
0.2074526676
0.2157989123
0.1963986791
0.2304565412
0.3173358349
0.4901905173
0.8408660448
2.030874835
0.1189349549
0.2065758427
0.2141405343
0.1944637285
0.2292911978
0.3183058596
0.4943979873
0.8469834257
2.034195675
0.1189085881
0.2060147517
0.2129890494
0.1935903783
0.2298741749
0.3226061822
0.5057695472
0.8673750016
2.047026287
0.1349357228
0.2209992198
0.2384232466
0.2260312976
0.259320805
0.3412650199
0.5102132047
0.8640182168
2.046127838
0.1353526871
0.2215122314
0.2378645975
0.2231149873
0.2538667999
0.3345026107
0.5034478791
0.8571742895
2.042524655
0.1357216823
0.2217969048
0.2368901348
0.2199822428
0.2486967666
0.328256529
0.4967309567
0.8495000815
2.038289538
0.13603955
0.2218501827
0.2356271999
0.2168477539
0.2439097729
0.3225156266
0.4901360189
0.8411980927
2.033539383
0.1362662472
0.2216770563