/*--------------------------------*- C++ -*----------------------------------*\
| =========                 |                                                 |
| \\      /  F ield         | OpenFOAM Extend Project: Open source CFD        |
|  \\    /   O peration     | Version:  1.6-ext                               |
|   \\  /    A nd           | Web:      www.extend-project.de                 |
|    \\/     M anipulation  |                                                 |
\*---------------------------------------------------------------------------*/
FoamFile
{
    version     2.0;
    format      ascii;
    class       volScalarField;
    location    "0";
    object      k;
}
// * * * * * * * * * * * * * * * * * * * * * * * * * * * * * * * * * * * * * //

dimensions      [0 2 -2 0 0 0 0];

internalField   nonuniform List<scalar> 
2916
(
0.4421707564
0.3598798254
0.2697039722
0.2021523052
0.1410793323
0.1121656908
0.1181415526
0.117685762
0.09827505971
0.4848225549
0.3976470281
0.3008916622
0.2299400034
0.1661756354
0.1350103408
0.1350042296
0.1254004658
0.102158269
0.5853212791
0.4856624618
0.3644668204
0.2740865673
0.1999735382
0.1600922003
0.1490372165
0.1309829058
0.1055302912
0.6695613261
0.5343473618
0.3790335092
0.2720652451
0.1946782678
0.1536764223
0.1407036371
0.1256477054
0.1028390067
0.6314988042
0.4809494713
0.3295253924
0.2395107004
0.1756006284
0.1397638557
0.1276256389
0.1163622272
0.09682617452
0.5384158444
0.416338737
0.2961840493
0.2276196844
0.1774397172
0.1441717033
0.1264161181
0.1106233576
0.09133616832
0.4838341679
0.3847374479
0.2839278625
0.2255784347
0.1857104287
0.1566802217
0.1332098743
0.1093676628
0.08750005667
0.4472318366
0.3554877326
0.2671855637
0.2213947831
0.1936633687
0.1717544309
0.1453170515
0.113255462
0.08715616038
0.4081950488
0.3264594765
0.2521671237
0.2189809827
0.2024162487
0.1879469167
0.1604441213
0.1211440804
0.09069490962
0.6251209055
0.5093309037
0.3762416278
0.2810415638
0.1996925163
0.1588646911
0.1665424353
0.1648920745
0.1353899356
0.7736664074
0.6373867698
0.4749837986
0.3561577004
0.2546189134
0.2012398429
0.1976771917
0.1807884587
0.1435248065
1.067052804
0.8725165058
0.6345228249
0.459047266
0.3229880758
0.2467877676
0.2235417637
0.1924185024
0.1502463934
1.288439225
0.9903238488
0.6657446792
0.4511918444
0.3060545001
0.2296312131
0.2056319676
0.1813429599
0.1450443047
1.192579961
0.8545943443
0.5372613225
0.3631409267
0.2513869855
0.1926061407
0.1760637312
0.1619367737
0.1337304434
0.9303089538
0.6653903763
0.4264424785
0.3066128383
0.2289715062
0.1828819044
0.1646445828
0.1486565212
0.1234761903
0.7369273598
0.5481012429
0.3691487001
0.2759136764
0.2190821461
0.1842382672
0.1637590151
0.1415131027
0.115624913
0.6167771972
0.4632893213
0.320405939
0.2509294082
0.2138494672
0.1915587572
0.1709451023
0.1416079448
0.1126866213
0.526834088
0.3985508398
0.2840415932
0.235484965
0.2153204099
0.2041462068
0.184126582
0.1480599143
0.1152274486
0.6316117931
0.5174726379
0.3933806463
0.3122000098
0.2414537416
0.1933277952
0.1833279396
0.1749840325
0.1515251244
0.8404005204
0.7055096568
0.5462925565
0.4272371603
0.3142962097
0.2406561185
0.2226690015
0.2025635047
0.168822595
1.203234041
1.007321379
0.7627463137
0.5671373387
0.3976958669
0.2925186085
0.2584154671
0.2248016245
0.1830310976
1.444558303
1.145737873
0.8079673178
0.5626234031
0.380827151
0.2749356877
0.2374502857
0.2084744254
0.1736752253
1.335674161
0.9869336862
0.6464148779
0.4425015381
0.3077650779
0.2295655445
0.1991008734
0.1786200441
0.1535491108
1.042300595
0.7462333832
0.4777766205
0.338964081
0.2534058456
0.2021326321
0.1786642409
0.159673402
0.1379797562
0.7983884085
0.5756741609
0.3740485752
0.2729600323
0.2153230689
0.1833149898
0.1673399551
0.1489136465
0.1278177595
0.6346754752
0.4575707714
0.3007957482
0.2279773002
0.1923438058
0.1762069991
0.1663321423
0.1468810699
0.1242716777
0.5197289355
0.3742199788
0.2498664343
0.1993446464
0.1814470055
0.1779094418
0.172863448
0.1518608104
0.1267872661
0.4585554762
0.3802897284
0.3035608535
0.2654578109
0.2353886135
0.2042134707
0.1787622151
0.1586468397
0.1437932409
0.6257976285
0.546249451
0.4562985993
0.3947465055
0.3228542376
0.255683171
0.2189784495
0.1917035786
0.1677816678
0.8927191031
0.7944698843
0.6595981186
0.5411517005
0.4110355798
0.3053763068
0.2560723888
0.2205337958
0.1885575455
1.049509778
0.9002898145
0.7054795941
0.543561757
0.3997547696
0.2936666863
0.2411714161
0.2058126783
0.1782174619
0.9764510241
0.7817157569
0.5658137757
0.4191645301
0.3155438721
0.2433265214
0.2011345426
0.1717684117
0.1523982445
0.7857586208
0.5906740702
0.4009151943
0.2952801594
0.2331002457
0.1926261472
0.1667924278
0.1463137563
0.1325112608
0.611383886
0.4444613287
0.2934616222
0.219006507
0.1798032117
0.1578024068
0.1449088502
0.131857751
0.120909533
0.4864789592
0.3481127403
0.2281579378
0.175216674
0.1524349922
0.1446099087
0.1404636969
0.1292030097
0.1170687337
0.3998757362
0.283186793
0.1848866914
0.1468178004
0.136493333
0.1400029281
0.1431056658
0.1324942266
0.1183856673
0.2927584828
0.2400375391
0.1962066918
0.1873557299
0.1937885346
0.1951919621
0.1768615305
0.1504836091
0.1355312417
0.368290933
0.3231156766
0.2865476778
0.2831271763
0.2798729589
0.2586012358
0.2224491606
0.1848545602
0.161537627
0.4875563974
0.4471729163
0.4075209507
0.393140482
0.3652832307
0.3143079865
0.2614302242
0.2151808571
0.1849265923
0.5569977671
0.500071092
0.4354386938
0.3964834185
0.3561027021
0.3036322936
0.2521185762
0.2062985562
0.1774045525
0.5291342307
0.4449315734
0.3554990423
0.3034941672
0.2707424416
0.2397909478
0.2058930192
0.1713493199
0.1507099988
0.4512613828
0.3537189261
0.260094409
0.212316528
0.1893560549
0.1732578967
0.1554800715
0.1366884375
0.1265992108
0.3773600756
0.2824368365
0.1980304186
0.1603629961
0.1451167782
0.1372629418
0.1282811423
0.1173751027
0.1120777254
0.3226392912
0.2356724913
0.1616368448
0.1328099794
0.1257153574
0.1283455185
0.126804648
0.1149281035
0.1067307443
0.2828772967
0.2031345867
0.1366960497
0.1138090764
0.1129099781
0.1245941386
0.1316201532
0.1201578822
0.1074479912
0.1910493302
0.1493407076
0.1184847256
0.1181196748
0.1360239841
0.1584912126
0.1615007022
0.1434326987
0.1293691442
0.2066761661
0.1686173975
0.1447458405
0.1554906872
0.1852181468
0.2129532963
0.209817856
0.1793232776
0.155486552
0.2305857465
0.1971557925
0.1803953781
0.2003599073
0.236073408
0.2621321416
0.2511174163
0.2104397326
0.1789199798
0.246009543
0.2106208014
0.1891992648
0.2022780851
0.2300642353
0.2515299047
0.2427063406
0.2050567663
0.1745455866
0.2443560457
0.2009082755
0.1674941828
0.1657418058
0.1798702278
0.1958680602
0.19418714
0.1700685952
0.1496431853
0.2330433404
0.1827931287
0.1414085259
0.1309073447
0.1359282569
0.1452287219
0.144772206
0.1319899849
0.123447199
0.2205854682
0.1671035184
0.1229364068
0.1103472273
0.1134544956
0.122173938
0.1226246596
0.1120986271
0.1067178211
0.2092224659
0.1544950377
0.1098152179
0.09776363605
0.1030489675
0.1182878543
0.1255970304
0.1131859602
0.1013250522
0.1987357691
0.1435913012
0.09900078433
0.08760769789
0.09460327097
0.1152313465
0.1330570479
0.1243577302
0.1039133972
0.1453531123
0.1060712965
0.07795181339
0.07696116098
0.09161898584
0.118525725
0.1422482087
0.1418189996
0.1279272017
0.1480538185
0.1093427757
0.0823694196
0.0840651124
0.1057914282
0.1455191185
0.178227252
0.1739310574
0.152016665
0.1518720666
0.1137794698
0.08809109202
0.09266664269
0.1208215787
0.1710887391
0.2105789326
0.2024981269
0.1738702087
0.1550240782
0.1166116533
0.0903002428
0.09391959177
0.1195151795
0.1660824388
0.2054731996
0.200156711
0.1721166469
0.156730539
0.1169885149
0.08836598327
0.08830419377
0.1062868255
0.1400358145
0.1720780969
0.172320819
0.1515049602
0.1572007122
0.1158264674
0.08484807635
0.08172422501
0.09432417868
0.1179618116
0.1401109121
0.1408698818
0.1274002691
0.1567680033
0.1138301743
0.08097709219
0.07600994891
0.08636731271
0.1070833391
0.1252783026
0.123282526
0.1105318972
0.1555515575
0.1112103889
0.07692369103
0.07092553045
0.08088817999
0.1035558816
0.1264064772
0.1242219256
0.104594686
0.153701717
0.1082170152
0.07289943578
0.06622508336
0.07570003247
0.09916219338
0.1289060586
0.1315446111
0.1048618344
0.1252065806
0.0865772263
0.05867304409
0.05577739068
0.0661994741
0.08910210995
0.1213926805
0.1366796367
0.1256415867
0.1256437565
0.08728022504
0.05964310563
0.0572115062
0.06897304249
0.09710727775
0.1382121482
0.1576123868
0.1446174439
0.1263771491
0.08826986557
0.06087244947
0.0589149425
0.07206410605
0.1051419145
0.1542650458
0.1772326073
0.1623278641
0.1272455182
0.08917682571
0.06168430332
0.059633553
0.07284583698
0.1054471491
0.1548009979
0.1785295348
0.1622051747
0.1281130401
0.08980919621
0.06181652132
0.05906279888
0.07114297992
0.09940088025
0.1425042692
0.1638138523
0.1474641731
0.1288647207
0.09006750401
0.06126551102
0.05748039305
0.06799418092
0.09202986035
0.1273403991
0.1438740194
0.1290891991
0.1294063995
0.08992013746
0.06014173359
0.05523986982
0.06422767772
0.08554454309
0.1161061075
0.1290310618
0.1146708605
0.1296893824
0.08943934746
0.0587251066
0.05291020634
0.06079498094
0.08074032943
0.110796529
0.1232452033
0.1068592071
0.1297427194
0.08880619773
0.05739852768
0.05106600235
0.05819803528
0.07655905037
0.1059605857
0.119210762
0.1024301115
0.1156200951
0.07856630318
0.05070345199
0.04517047592
0.05064248986
0.06481274445
0.08916387536
0.1097767329
0.11285673
0.11549875
0.07862478726
0.05095357845
0.04567554267
0.05179430206
0.06759441005
0.09608747391
0.1213551835
0.1256269525
0.1154331181
0.07876781503
0.05129866024
0.04627337023
0.05304676793
0.07046509763
0.1028270487
0.1323237596
0.1376770936
0.115504825
0.07896780364
0.05154731223
0.04649725931
0.05333275546
0.07097984545
0.1036906858
0.1329256393
0.1372721474
0.1156901836
0.07915784271
0.05156848486
0.04614862101
0.05241863798
0.06899119217
0.09894100823
0.1245163926
0.1270798816
0.1159505827
0.0792845874
0.0513282758
0.04530252875
0.05064739241
0.06545206771
0.09141898503
0.1130098386
0.1151021039
0.1162439606
0.07932964077
0.05089519338
0.04421189681
0.04859503442
0.06157901568
0.0842864868
0.103324096
0.1055494198
0.1165377147
0.079322383
0.05043508626
0.04327453009
0.04704288848
0.05878731354
0.07955627812
0.09743669619
0.09995057328
0.1141716402
0.07858774271
0.05027720024
0.04294573334
0.04672850062
0.0581220492
0.07763710476
0.09537712376
0.1015879671
0.3713033801
0.300956036
0.2394043351
0.2157577262
0.2071731232
0.1987678804
0.1723084624
0.1289534726
0.09559950605
0.3390466099
0.2783393963
0.2260271863
0.2074387873
0.2016979997
0.1956849247
0.171983751
0.1301234407
0.09722716559
0.315033087
0.2609921536
0.2137900634
0.1959314644
0.1882495848
0.1805116446
0.1593655538
0.1229647713
0.09371987442
0.3027779956
0.2528653839
0.2074802008
0.1876399
0.1755503652
0.1638111757
0.143762697
0.1127555179
0.08762270064
0.302475042
0.2542025539
0.2076674807
0.1838221421
0.1659215195
0.1492083338
0.1295218186
0.1032088526
0.08148695971
0.3124724971
0.2630144317
0.2123819607
0.1826413674
0.1577368065
0.1358219924
0.117185654
0.09620776661
0.07756988666
0.33138045
0.278041243
0.220921492
0.1839107027
0.1511236
0.1245494623
0.1086169559
0.09393672552
0.07802971511
0.3584698933
0.2989569577
0.2335412738
0.1880227777
0.1462709369
0.1160179022
0.1050154577
0.09713477121
0.08287588704
0.3827985824
0.3176885426
0.2452860739
0.192661444
0.1434621949
0.1110760938
0.105069913
0.1022548346
0.08824763138
0.4561629735
0.3495926778
0.2575018503
0.2238581975
0.2150023773
0.2116492626
0.1938813735
0.1549866157
0.1197358425
0.4012228131
0.3118752685
0.2356325285
0.2100655493
0.2052549471
0.2041404009
0.189664329
0.1543109605
0.1206028606
0.3635909715
0.2864207213
0.2197176486
0.1964437024
0.189811161
0.1859707576
0.1739951101
0.1458161148
0.1165986199
0.3449597603
0.2756623074
0.2134534258
0.1887915273
0.1774151214
0.1687626666
0.1578090085
0.1357246512
0.1106998091
0.3442318914
0.2788917994
0.2167169257
0.1878196606
0.169837839
0.1554075932
0.1442336863
0.1262636839
0.1044955905
0.3600443971
0.2944300325
0.227797607
0.1919223102
0.1656559829
0.144875176
0.1335170067
0.1194390373
0.1003502976
0.3918510279
0.3216449366
0.246481582
0.2014423889
0.1656692733
0.1387433297
0.1287115151
0.1193838444
0.1018891461
0.4402546359
0.3615520433
0.2743571167
0.2181359944
0.1712439747
0.1384632873
0.1316919569
0.127486944
0.109744484
0.4853824586
0.3985963725
0.300752599
0.2349576004
0.1785018397
0.1413501375
0.1380309548
0.1374474521
0.1182367374
0.4353203003
0.314328656
0.2138721702
0.1784946685
0.1716207661
0.1756532676
0.1753016218
0.1561454587
0.1306726587
0.3727199228
0.2706044289
0.1871316895
0.1602684409
0.1572544675
0.1623838555
0.1654543003
0.1527062931
0.130573739
0.3304132255
0.2424983343
0.1705960954
0.1474834268
0.1435366186
0.1454672254
0.149991991
0.1445397259
0.1268735732
0.3083212866
0.2306430672
0.1658438025
0.1433800621
0.1363262611
0.134052879
0.1387791192
0.137910829
0.1228312308
0.3056466264
0.2342845629
0.1721913797
0.1476378889
0.1357284014
0.1284381902
0.1313948482
0.1315909023
0.1178946026
0.3220652905
0.2526250431
0.1885302787
0.1590013719
0.1402637608
0.1267987108
0.1261778059
0.1251173839
0.1126946383
0.3572798631
0.2849751346
0.2143258191
0.1774657134
0.1507147005
0.1308181115
0.126573281
0.1237643628
0.1118996306
0.4112426439
0.3316662323
0.2507053041
0.2049371041
0.169647024
0.1432641923
0.1357206367
0.1312473881
0.1183911507
0.4612943584
0.3743894778
0.2841374674
0.2310169673
0.1889550678
0.1574165825
0.1473359786
0.141496096
0.1269104384
0.3372780681
0.2366022826
0.1534111835
0.1246326275
0.120920998
0.1297961636
0.1392886697
0.1340690406
0.1208953979
0.2906573611
0.2022126049
0.1300673262
0.1066690517
0.1047055756
0.1128346215
0.1259652119
0.1296503551
0.1205702695
0.2577199712
0.1793724254
0.1161208693
0.09629207957
0.09407880235
0.09913159878
0.1123897847
0.1221609232
0.1172544356
0.2385245244
0.1686764805
0.1124525266
0.09500529628
0.0920330996
0.09439509803
0.1061379371
0.1174170817
0.1141721686
0.2338042088
0.1704705405
0.1187898244
0.1021455944
0.09744579985
0.09638243107
0.1048498378
0.1146162554
0.1112607844
0.2441753623
0.1846047145
0.1342613294
0.1162626565
0.1079585039
0.1016404781
0.1046812005
0.1109962878
0.1075164812
0.2689068797
0.2095922213
0.1570373284
0.1356294747
0.1225936689
0.1108633935
0.1078895419
0.1093491287
0.1056921998
0.306081373
0.2435608708
0.1858847738
0.1601530525
0.1433558644
0.1279073723
0.1190747026
0.1145179113
0.1095629858
0.3395375882
0.2731391977
0.2105753402
0.1815942852
0.1630320973
0.1458329975
0.1325659475
0.1229836493
0.1161600882
0.2521921669
0.1780092108
0.116821124
0.09700059208
0.09781474641
0.111528116
0.1267966726
0.1243777915
0.1107963191
0.2274805396
0.1578977137
0.1009313454
0.08275370326
0.08265014848
0.09307150801
0.1117485913
0.1203201543
0.1108372125
0.2081628886
0.1431594321
0.09065629648
0.07446787619
0.07387057935
0.08108760779
0.09794018316
0.110733795
0.1064805932
0.1952245196
0.1351209896
0.08739277206
0.07371547974
0.07377440867
0.07992906911
0.09388419958
0.1052197476
0.1028344144
0.1902125074
0.1349564481
0.09160074795
0.08030005228
0.08125183529
0.08621218847
0.09609348716
0.1036628853
0.1008168922
0.194078412
0.1427553309
0.1023868432
0.09230824855
0.09266744293
0.09370461809
0.09698091903
0.1006488841
0.09844156286
0.2061116112
0.1568338027
0.117223742
0.1065925554
0.104823855
0.1010223532
0.09767074364
0.09793211158
0.09716179771
0.2241939819
0.1747207762
0.1337352332
0.1215176333
0.1183974544
0.1126449234
0.1048160301
0.1009230739
0.1001699883
0.2400104197
0.1893616509
0.1465434678
0.1330652069
0.1301180653
0.1251828786
0.1153164651
0.1075867786
0.105548977
0.1888101592
0.133640339
0.08918231021
0.07753048724
0.0831389731
0.101872722
0.1269643228
0.1295489881
0.1073445185
0.1793484884
0.1245580484
0.08052202374
0.06835822628
0.0713787608
0.08448313341
0.1088032103
0.1200850849
0.1043754284
0.1706649587
0.1169780319
0.07427864293
0.0625645044
0.0645219867
0.07423755857
0.09386994274
0.1061505635
0.09749154925
0.1637064016
0.1120748632
0.07182125935
0.06184329473
0.06490868273
0.07509074455
0.09222540184
0.1014780636
0.09396197921
0.1597773844
0.1109785141
0.0738793642
0.06650120361
0.07208508287
0.08413140873
0.0989523632
0.1030006541
0.09336400386
0.1597554521
0.1139293667
0.07980723772
0.07472443225
0.08198092566
0.09283937031
0.1011641396
0.09985131243
0.09153719047
0.1634345054
0.1198866824
0.08760890565
0.0834376894
0.09040322411
0.09722759254
0.09765950897
0.09344324668
0.08978686123
0.1697619446
0.1273537212
0.09556851315
0.09119699245
0.09753965072
0.1020145423
0.09794786691
0.09234601283
0.09203360298
0.1754400204
0.1333176235
0.1013592288
0.09661687034
0.1030131011
0.1077955691
0.1028597222
0.09627507768
0.09671866646
0.1513950007
0.1050716854
0.06901396259
0.06154003847
0.06902499204
0.08828497502
0.1182110046
0.1270300627
0.1023340262
0.1486801366
0.101838244
0.06533344031
0.05704430709
0.06206754757
0.07558639844
0.09935738783
0.1103783406
0.0943050788
0.1456159058
0.09870870981
0.06232416885
0.05382011141
0.05760354868
0.06817605106
0.08648021868
0.09610078291
0.086286208
0.1425575726
0.09623309064
0.06080714401
0.05315173446
0.05769923772
0.06932755315
0.0868439794
0.09400154441
0.08381123928
0.1401425109
0.09507815176
0.06139139752
0.05558621993
0.06266729116
0.07797703937
0.09696747325
0.1005121827
0.08599780374
0.1389203042
0.0955101098
0.06383066282
0.06003538619
0.06956700153
0.08695142623
0.1042180982
0.1035991723
0.08773730084
0.1390178183
0.09717771073
0.06709369538
0.06449641004
0.07486608468
0.09104712313
0.1034604192
0.1004304514
0.08821821593
0.1401973274
0.09952087522
0.07036952424
0.06817475977
0.07855096406
0.09337445669
0.1025587325
0.09924539084
0.09129186722
0.141514551
0.1014763288
0.07274508934
0.07067863073
0.08117680882
0.09606888844
0.1049197479
0.102165311
0.09621884347
0.1296132487
0.08815022212
0.05631914208
0.04973006734
0.05599591251
0.07132917609
0.09618492597
0.1090074042
0.09643586358
0.1292677816
0.0874230482
0.05532201095
0.04846146257
0.05358455923
0.06550454648
0.08432517532
0.09535538831
0.08817349326
0.1286330354
0.08655610324
0.05434347891
0.04727365215
0.05149057854
0.06133905916
0.07650773106
0.08581821897
0.08120852969
0.1277317907
0.08566277334
0.05366790382
0.0468220992
0.05112430267
0.06134659018
0.07675996868
0.08509524926
0.07914792665
0.1267330143
0.08499033674
0.05363408831
0.04759642045
0.05316508265
0.06602472725
0.08459419409
0.09230742746
0.08220624764
0.1258560709
0.08471017291
0.05425759085
0.04927895065
0.05646529801
0.07213869112
0.09348509408
0.1004363656
0.08680653547
0.1252438496
0.08480228503
0.05521927173
0.05104409651
0.05921805333
0.07617187521
0.09799351617
0.1043726709
0.09052227675
0.1249356055
0.08515695521
0.0562459917
0.05252922511
0.06118645854
0.07872473402
0.1004936509
0.1072185731
0.09521711493
0.1248540168
0.08552503367
0.05702170933
0.05356511531
0.06260050221
0.08083790804
0.1032502021
0.1108810373
0.1003472289
0.1104135017
0.07749801104
0.05040736277
0.04316630291
0.04727733598
0.05851838277
0.07642883307
0.09377534138
0.1058917364
0.109211816
0.07713300692
0.05050005924
0.0434274694
0.04759437256
0.05797806417
0.07334686666
0.08883531707
0.1037052972
0.109254148
0.07709145249
0.05048608605
0.04349840977
0.04739766488
0.05659235357
0.06972921584
0.08342258036
0.09843587519
0.1091831771
0.07697546988
0.05043793218
0.04353024349
0.0472020241
0.05578105579
0.06836373612
0.0815490333
0.09592030384
0.1089994373
0.07682263191
0.0504543792
0.04373884252
0.04747435998
0.05634523411
0.07005441174
0.08361905321
0.09655494682
0.1087393174
0.07668303905
0.05057309834
0.04411303627
0.04809255735
0.05775845121
0.0732369306
0.08742108353
0.09876339173
0.1084490166
0.0765802566
0.05074771498
0.04448816702
0.04866704961
0.05907930031
0.07592566143
0.09062891492
0.1012117935
0.1081661657
0.07651632822
0.0509262911
0.04478230795
0.04911196972
0.06019902414
0.07813772335
0.09358287677
0.1044352729
0.1066304777
0.07614289396
0.05116361657
0.04502843627
0.04947568044
0.06115009121
0.08007668996
0.09663021734
0.1098648642
0.09409445828
0.07294837972
0.05112210818
0.04220229031
0.04414221955
0.05331140047
0.06929030261
0.09197452081
0.1320742658
0.09272832802
0.07254638535
0.05131932504
0.04269464064
0.04515510672
0.05463160348
0.06981176189
0.09073309375
0.1320573266
0.09268694597
0.07255820174
0.05151080736
0.04323198078
0.04607565959
0.05528541186
0.06893417779
0.08795578849
0.1293664646
0.09265101425
0.07258845395
0.05172759489
0.04372348496
0.04663377417
0.05514469826
0.06749089166
0.08584374408
0.1277332117
0.09261438203
0.07263125072
0.0519511248
0.04411961428
0.04685789936
0.0546310085
0.06624104
0.08461634354
0.1270103236
0.09257758339
0.07268404272
0.05215457834
0.04436993432
0.04679006518
0.05396435417
0.06530980962
0.08399725855
0.1267956229
0.0925445716
0.07274156797
0.05230740243
0.04444957963
0.04650493556
0.05328490346
0.06469876778
0.0838239381
0.1269443694
0.09251939299
0.07279596403
0.05238949516
0.04437660638
0.04611322057
0.05273610313
0.06449742178
0.08417959907
0.1276041109
0.09116565497
0.07247826083
0.05251604259
0.04427019776
0.04574187584
0.05233359877
0.06451405465
0.08498313381
0.1306865587
0.09792708261
0.07923469936
0.05768203107
0.04611718053
0.04506889126
0.05241987767
0.06828618961
0.09316342893
0.1457700224
0.09772125383
0.07910050939
0.05776099558
0.04646893993
0.04600764925
0.05402465513
0.06949390357
0.09245646803
0.1447573177
0.0975320082
0.07904268094
0.05790327175
0.04693318051
0.04713154277
0.05549683806
0.06996589284
0.09119598232
0.1437132105
0.09738832297
0.07903703157
0.05809601462
0.04742562302
0.04798727327
0.05603885773
0.06932020915
0.08984925338
0.1430467825
0.09729800666
0.07907950722
0.05830814774
0.04783475167
0.04843044752
0.05585988078
0.0682649681
0.08872584707
0.1426212137
0.09726773293
0.0791636222
0.05850276611
0.04808451463
0.04847457818
0.05525556398
0.06716192101
0.08784203189
0.1423254535
0.09729975503
0.07927856355
0.05864673364
0.04814926317
0.04821785168
0.0544642423
0.06615942548
0.08715041163
0.1421017053
0.0973901909
0.07940986897
0.0587194126
0.04804742056
0.04777697257
0.05363318004
0.06528523442
0.08657504458
0.1419056303
0.09751981802
0.07953350472
0.05871189985
0.04782377712
0.04725426425
0.05284133805
0.06452732171
0.08606304248
0.1417144472
0.1206478173
0.096650526
0.0704938303
0.05485626943
0.04898579777
0.05292034781
0.06758332203
0.09240554009
0.1455324434
0.1203051836
0.09645782607
0.07056630642
0.05497197366
0.04960858586
0.05447671118
0.06901734666
0.09202791167
0.144700263
0.1200818183
0.09646974591
0.07065293839
0.05500527216
0.05029685775
0.05592543728
0.06976782858
0.09108399147
0.1437934522
0.1199683716
0.09654253745
0.07070608778
0.05502850945
0.05082269615
0.05653780231
0.06932273972
0.08981382387
0.1431135427
0.1199662792
0.09665942843
0.0707186922
0.05500362181
0.05108004289
0.05649999102
0.0683870672
0.08863562743
0.1426184374
0.1200693783
0.09680526385
0.07068673515
0.054911226
0.05109227341
0.0560819116
0.0673341327
0.08762798918
0.1422349722
0.1202626756
0.09696501145
0.07061006149
0.05475903354
0.05094511161
0.05549666938
0.06632556023
0.08677937615
0.1419211556
0.1205222012
0.0971221491
0.07049484928
0.05457825869
0.05072994646
0.05487046079
0.065402714
0.08603389385
0.1416373921
0.1208013067
0.09724466579
0.07034705125
0.05440946781
0.05051749971
0.05426703766
0.06456891889
0.08535358119
0.1413630731
0.1504803221
0.1230537853
0.09273171912
0.07137596984
0.05757343676
0.05510760218
0.06713329551
0.09148981457
0.1451821521
0.1501739083
0.1229809731
0.0927457094
0.07078697025
0.05733996906
0.05634951357
0.06871806146
0.09137553493
0.1444756563
0.1501946435
0.1233184441
0.09263593336
0.06974133157
0.0569852008
0.05757404551
0.06979549061
0.09081278713
0.1437233762
0.1503966193
0.1236709295
0.09231195507
0.06869659665
0.05682103223
0.05834621376
0.06979771777
0.0897758658
0.1430743685
0.1507406731
0.1239849457
0.09182630739
0.06777221593
0.0568239249
0.05877960806
0.06930983346
0.08868156828
0.1425370772
0.1511759702
0.1242240224
0.09124971177
0.06705586104
0.0570084168
0.05902527507
0.06863014347
0.08765379449
0.1420859369
0.1516446373
0.1243664482
0.09065399866
0.06660636757
0.05739073201
0.05918354112
0.06789645603
0.08672935508
0.1417046483
0.1520868999
0.124399936
0.09010272957
0.06646139911
0.0579684229
0.05929641385
0.06715729635
0.08588469402
0.1413596244
0.152427403
0.1243007328
0.08963858202
0.06663191705
0.05871069846
0.05936776312
0.06643043657
0.08509912689
0.141029004
0.1902530343
0.1654666422
0.1332440399
0.1028701369
0.07562626973
0.06151280082
0.06791853641
0.09079584603
0.1448472086
0.1904450273
0.1658174269
0.1327856376
0.1005385085
0.07361985874
0.06213700825
0.06986943635
0.09131938634
0.1444360732
0.1910948582
0.1666096193
0.1317948991
0.09718564991
0.07142614277
0.06319359057
0.07183472426
0.09160955431
0.1439877477
0.1918355018
0.1671528376
0.1303162207
0.09416554071
0.07043516209
0.06481312408
0.07311086258
0.0912001189
0.1434313156
0.1925547731
0.1673632192
0.1285697441
0.09187519016
0.07067880518
0.06679847706
0.0738859673
0.09043135545
0.1428558477
0.1931467882
0.1672212441
0.126805862
0.09054393136
0.07201753809
0.06893570613
0.07426216091
0.08952799294
0.142336041
0.193527256
0.166759194
0.1252464434
0.09024637975
0.07421376228
0.07103884747
0.07434035171
0.08862980807
0.1418969497
0.1936451194
0.166043494
0.1240559771
0.0909461043
0.07700100979
0.0729660389
0.07419710771
0.08776962596
0.1415059666
0.193469702
0.1651427767
0.123324717
0.09251113003
0.08009859299
0.07460089774
0.07387085542
0.08694077683
0.1411325133
0.2453919268
0.2395356332
0.2096766669
0.1624996228
0.1145568961
0.08071570783
0.0741091095
0.09201387617
0.1450243922
0.2464742509
0.2398723013
0.2072083311
0.1574424419
0.1105958862
0.08104991867
0.07735869488
0.09410164803
0.1452619444
0.2474378564
0.2398407061
0.2035817913
0.1512624087
0.1072364212
0.08327732786
0.08190073171
0.09634813883
0.1454233943
0.2480157883
0.2390719492
0.1996368542
0.1467920834
0.1073804691
0.08817380445
0.08645837526
0.0974054545
0.1450796505
0.248096668
0.2376456031
0.1959939487
0.1447255401
0.1107809958
0.09454786393
0.09025318434
0.09748080659
0.1444981221
0.2476422316
0.2357575692
0.1931950676
0.1452445969
0.1166107012
0.1012272432
0.09300480859
0.09704233494
0.1439445285
0.2466995858
0.2336665405
0.1915833052
0.1480965688
0.1238357119
0.1073900167
0.09482148539
0.09643646139
0.1434933655
0.2453957064
0.2316498115
0.1912928101
0.1527604728
0.131495277
0.1125746915
0.09589080926
0.09577807694
0.1430954465
0.2439054241
0.2299453268
0.1922471888
0.1585386922
0.1387663499
0.1165319419
0.09630884409
0.09504921054
0.1427011257
0.3041380907
0.3405846696
0.3189999009
0.2554695266
0.1998399202
0.1442315772
0.1047449589
0.1028652321
0.1477882108
0.3055920096
0.3385931496
0.3131575937
0.252567423
0.200920755
0.1483551953
0.1116866462
0.1081741576
0.1492757649
0.3050495463
0.3344700118
0.3073187439
0.2519596314
0.2062922428
0.1576916283
0.1222375039
0.1143142587
0.1506138802
0.3034948447
0.3299885246
0.3037144237
0.2563457454
0.2179675127
0.1718312028
0.1332702329
0.1183372675
0.1508298817
0.3010738031
0.3257045537
0.3031240762
0.2655843708
0.2335813079
0.1865046218
0.1416893628
0.1200325491
0.1504340111
0.2980709867
0.3221674181
0.3057363618
0.2782137404
0.2495953999
0.1982309083
0.1467544567
0.1204743801
0.1500104481
0.2948724229
0.3198151265
0.3111107575
0.2920149922
0.2628351188
0.2054713386
0.1492270636
0.1205388182
0.1497017141
0.2919076916
0.3189498224
0.3184195965
0.3047442989
0.2713977915
0.2083478959
0.1500680469
0.1204755589
0.1494191386
0.2895862985
0.3196794669
0.3265733362
0.3145516374
0.2747034071
0.2078326338
0.1498958128
0.1201819749
0.1490868577
0.2943758455
0.3567506374
0.3449184364
0.2864993283
0.2476456807
0.1916695216
0.1325804629
0.1161996189
0.1522994989
0.2951604517
0.3521188099
0.3378120991
0.2891635426
0.2557253042
0.1986550413
0.1404312672
0.1224975061
0.1543532979
0.2927506995
0.3446014163
0.3330835612
0.2986240158
0.2721930612
0.2137821147
0.1535091536
0.1300731878
0.1562465517
0.2892448156
0.3377474416
0.3330684495
0.3148319956
0.2950815695
0.2334044867
0.1668382046
0.1352111962
0.1568170734
0.2850453213
0.3324290524
0.3382115249
0.3362811121
0.3199945853
0.2512598081
0.1762009193
0.1375388357
0.1566644751
0.280681206
0.3293262755
0.3479957242
0.3597242304
0.3412155122
0.2625503941
0.1807766337
0.1383782088
0.1564390325
0.2767233615
0.3288107245
0.361030713
0.3811858931
0.3541960465
0.2656971953
0.1818707046
0.1388202554
0.1562875901
0.2736921785
0.3309028331
0.3754091803
0.3971193397
0.3569181792
0.261828104
0.1810500081
0.1391470288
0.1561193743
0.27199174
0.3352847065
0.389053002
0.4051641237
0.3498606905
0.2534236532
0.1794017952
0.1391952051
0.1558655983
0.214370102
0.257097629
0.25102214
0.2095123897
0.1829730298
0.1495119324
0.1165469126
0.1158504222
0.1510944007
0.2144397769
0.2532034281
0.2457126017
0.2121464751
0.1894692202
0.1538774293
0.1204983675
0.1191722562
0.1521920815
0.2122600844
0.2470487137
0.2422482859
0.2204031613
0.2026223732
0.1640704462
0.1277506396
0.1231642431
0.153393253
0.2093524704
0.2414331943
0.2421094715
0.2332896915
0.2199542083
0.1771132842
0.1353583295
0.1257877822
0.1536758716
0.2060490542
0.2371088571
0.2456657345
0.2495688141
0.238362636
0.1891033295
0.140920072
0.1269740534
0.1535276451
0.2027673853
0.2346882183
0.252689847
0.2669049109
0.2537573531
0.1966432716
0.1436180398
0.127327642
0.1532996575
0.1999391742
0.2345330132
0.2623243295
0.2824725152
0.2627858675
0.198332908
0.1439990487
0.1274220385
0.1530732882
0.197926551
0.236546644
0.2730262134
0.2936291758
0.2638913017
0.1947554885
0.1429981912
0.1274371509
0.1528132023
0.1969731681
0.2402755354
0.2830704929
0.2986646799
0.2574340762
0.187673331
0.1414113238
0.1272889407
0.1524929503
0.08717573716
0.07144476331
0.05278764281
0.04418297586
0.04536518949
0.05187996042
0.06431821502
0.0858916799
0.1378785852
0.08459597531
0.0707841091
0.05285620502
0.04391318384
0.04485933523