/*--------------------------------*- C++ -*----------------------------------*\
| =========                 |                                                 |
| \\      /  F ield         | OpenFOAM Extend Project: Open source CFD        |
|  \\    /   O peration     | Version:  1.6-ext                               |
|   \\  /    A nd           | Web:      www.extend-project.de                 |
|    \\/     M anipulation  |                                                 |
\*---------------------------------------------------------------------------*/
FoamFile
{
    version     2.0;
    format      ascii;
    class       volScalarField;
    location    "0";
    object      p;
}
// * * * * * * * * * * * * * * * * * * * * * * * * * * * * * * * * * * * * * //

dimensions      [0 2 -2 0 0 0 0];

internalField   nonuniform List<scalar> 
2916
(
163.3891013
328.77411
387.5277773
415.0537759
417.9194667
415.2190154
412.9161607
413.0917206
413.8814304
163.5856748
329.3025818
387.9379709
415.3096526
418.3550538
415.741117
413.3585979
413.3989626
414.0881626
164.0191481
330.1021292
388.4348354
415.5438259
418.7017293
416.1321339
413.6299952
413.5470161
414.1780345
163.94873
329.7404008
387.8345339
415.0129953
418.359392
415.8768187
413.3521195
413.2755816
413.9656358
162.7142004
327.6360029
386.228792
414.1091402
417.8657695
415.4745054
412.8894263
412.7857288
413.5508829
161.0109466
325.3407024
385.2079659
414.0603595
418.1919863
415.6250812
412.636547
412.2798885
413.0571018
159.9808881
324.3416534
385.5455626
415.2862365
419.6328672
416.5413213
412.6737983
411.7895268
412.5256896
159.9473808
324.7932738
387.0417307
417.6780655
422.2752909
418.4429651
413.1951957
411.4095097
412.0025299
160.5875003
326.2190586
389.3158419
420.9295234
425.9537535
421.3897939
414.4364498
411.3249647
411.5577986
151.700866
327.5961708
386.5444567
414.2663742
417.3063638
414.8035298
412.7367579
413.0870085
413.9499796
151.7620159
327.8805426
386.8109186
414.5068567
417.8205151
415.4379818
413.2659057
413.4285114
414.1569946
152.0330155
328.4685347
387.2051615
414.7309144
418.2298198
415.9032904
413.5827756
413.5921678
414.246018
151.7832983
327.839083
386.4335846
414.0751271
417.7744591
415.5373236
413.22034
413.2842913
414.0281198
150.4907639
325.5154043
384.7058765
413.0889715
417.1662018
414.9941641
412.6392634
412.7349752
413.6014952
149.0591617
323.4612668
383.8870684
413.1543415
417.5189956
415.1059488
412.3207134
412.1796172
413.0908333
148.4512404
322.962026
384.4860802
414.4392898
418.9297631
415.9621025
412.2915366
411.6376509
412.5350021
148.6608305
323.687136
385.98432
416.6740531
421.3754245
417.6957266
412.696008
411.1879085
411.976675
149.3260697
325.1188329
388.0814185
419.6699009
424.7883706
420.4251387
413.7973698
411.0274783
411.4891642
150.8348715
326.2213892
385.1889296
413.0797172
416.2467524
413.8737376
412.1042915
412.8405376
413.9726548
150.682139
326.0624765
385.0747897
413.0819063
416.628571
414.4889674
412.7012497
413.2555529
414.2136766
150.6358666
326.0710209
385.0396325
413.0801039
416.9560952
414.9647576
413.0706123
413.4631554
414.3195059
150.189465
325.1409404
384.1134615
412.3785082
416.4999709
414.5768171
412.6430629
413.0913243
414.068876
149.0604482
323.099148
382.6264646
411.5841346
416.0133699
414.0647802
411.9963237
412.4466775
413.578655
148.0997995
321.7603276
382.2424941
411.9071413
416.5122756
414.2519303
411.6798201
411.837773
413.0034004
147.9215045
321.8521871
383.0487478
413.163881
417.8078353
415.0078988
411.5907831
411.2408516
412.380511
148.2897589
322.6975333
384.3405419
414.9874625
419.8021279
416.3909923
411.8072297
410.699056
411.744582
148.8939825
323.8854797
385.9737977
417.3807054
422.6000666
418.6406827
412.6488968
410.4309685
411.1821312
150.2547142
325.2491422
383.8878392
411.9849489
415.2564111
412.8161879
411.1062282
412.1820947
413.7248233
150.1293393
325.056914
383.6743092
411.8574042
415.445619
413.2540639
411.6398075
412.651676
414.0496483
150.0033991
324.8598397
383.4607762
411.7484687
415.6661466
413.6609267
412.0160727
412.9131419
414.2067703
149.6030229
324.0186976
382.6564415
411.2007676
415.3789056
413.4309236
411.6591807
412.5129329
413.8978743
148.8611883
322.5672269
381.5242162
410.6263916
415.0918149
413.1170737
411.1043717
411.8159539
413.2894725
148.3165457
321.7036551
381.2132924
410.8952555
415.5515003
413.3498597
410.8602577
411.2029683
412.6146208
148.2535427
321.7670265
381.6987644
411.7691027
416.5076583
413.9128163
410.7426725
410.6097427
411.9191612
148.4696515
322.2206954
382.4227408
412.9153936
417.8432241
414.8344813
410.790915
410.04813
411.2318541
148.7986226
322.83689
383.336919
414.4293263
419.7547276
416.4196342
411.3375156
409.7367757
410.656208
149.3339414
323.4769714
381.6150418
410.4148392
414.2253272
411.9021803
410.0884166
411.1972555
413.0202196
149.3646329
323.5610606
381.6605098
410.4823063
414.4607031
412.244216
410.4912981
411.6467529
413.4362261
149.3716336
323.5930607
381.6735551
410.5634081
414.7501514
412.6286893
410.8359419
411.9335593
413.6671252
149.1668558
323.1154613
381.174726
410.2273128
414.628738
412.579271
410.6355095
411.5849665
413.3218841
148.7395235
322.1554198
380.2762519
409.6662604
414.3313423
412.3612311
410.2247877
410.9288029
412.6144715
148.367465
321.3808512
379.7081506
409.5266293
414.4329579
412.4396083
410.0200531
410.3791013
411.8898562
148.2118281
321.0687229
379.6007645
409.7835564
414.8732882
412.7329217
409.9104133
409.8988623
411.2295045
148.2059766
321.0153085
379.6887898
410.2180617
415.547633
413.2509901
409.9154609
409.483002
410.6522398
148.2833208
321.1096843
379.9320843
410.8811237
416.5914128
414.21783
410.2725718
409.2850429
410.2339434
147.758616
320.0633684
377.1233961
407.0881351
412.2765158
410.820354
409.1744925
410.1079493
411.8992347
147.8144334
320.2111303
377.2975961
407.3174556
412.6035064
411.1306219
409.4418757
410.4485758
412.3263038
147.8542331
320.3141333
377.4257327
407.5306762
412.9572899
411.4863717
409.7054074
410.6923073
412.5977525
147.7736638
320.1012558
377.1650967
407.3398662
412.9231405
411.5295665
409.6364995
410.4574444
412.2959267
147.5672398
319.5783934
376.5694673
406.8492472
412.6122405
411.3630054
409.3936075
409.9732894
411.6369419
147.3538066
319.0468648
376.0270386
406.4912023
412.4458791
411.31605
409.2744908
409.6101428
411.033287
147.221571
318.6923757
375.6884179
406.3597006
412.5113891
411.4458818
409.278402
409.3891487
410.6016173
147.1667338
318.4888054
375.4834224
406.3605322
412.7555497
411.7588853
409.4103042
409.2861515
410.3210428
147.1666638
318.3928246
375.3844537
406.4952755
413.2200803
412.3459136
409.7646046
409.339124
410.1757394
145.4220161
315.23948
370.6814721
401.7785769
409.1715727
409.5054077
408.6140868
409.4773732
411.0141074
145.4484935
315.3323388
370.8183843
401.9675275
409.4133645
409.6836444
408.7050557
409.638947
411.3276294
145.4684089
315.4026194
370.9244859
402.1393816
409.6736937
409.9066398
408.8245359
409.7739177
411.5606591
145.4493479
315.3488023
370.8411385
402.0766364
409.7106704
410.002332
408.8533845
409.6835901
411.3917689
145.3915665
315.1789044
370.5984564
401.8301705
409.5699046
410.0003361
408.8476876
409.4886488
410.9767552
145.3287964
314.9837911
370.3365817
401.5946357
409.4576065
410.0507067
408.9410201
409.4195401
410.6580754
145.2892973
314.8280688
370.1213243
401.4405103
409.4604646
410.2202392
409.1565001
409.5083091
410.5282728
145.2761676
314.7166088
369.9440418
401.3475115
409.5734502
410.5215698
409.4908466
409.7130161
410.5182939
145.2836134
314.6392494
369.7958686
401.307383
409.7970133
410.9725394
409.9460908
409.9807532
410.5381881
141.6839504
310.8932504
366.8593683
398.1634164
407.5864352
409.5000548
409.296821
409.9243437
410.8923382
141.6940306
310.9506276
366.9475524
398.2586818
407.6825129
409.5120268
409.2164354
409.9255814
411.0697178
141.7062502
311.0140641
367.0409096
398.3629541
407.8130489
409.5869912
409.1975624
409.9482466
411.2219328
141.7152335
311.051463
367.0831745
398.4041464
407.9083766
409.7231246
409.2944045
409.9617712
411.1695178
141.7220179
311.0646184
367.078704
398.3905123
407.9709759
409.9111411
409.5083354
410.0102037
410.9960094
141.7326156
311.0695542
367.0551299
398.3703585
408.0550107
410.1706094
409.8449779
410.180107
410.8965199
141.7518701
311.0780264
367.0271791
398.3690533
408.1987516
410.5220088
410.2911161
410.4703874
410.9149058
141.7784205
311.0881527
366.991063
398.3810718
408.4019936
410.9718194
410.8485321
410.8649729
411.0172652
141.8071441
311.0907287
366.9363581
398.389431
408.6454419
411.5168639
411.5097473
411.3071716
411.1105854
137.9235795
309.6673413
368.785423
399.0547896
409.1724263
411.3121087
410.9664435
410.8726395
410.9762158
137.9149979
309.6774323
368.8170974
399.0711751
409.1653081
411.2275399
410.7985189
410.8036704
411.1098654
137.9086872
309.7014215
368.8719238
399.116629
409.2092156
411.219273
410.7014449
410.7551788
411.20771
137.9113316
309.740728
368.9419269
399.1909459
409.3254467
411.3728165
410.8152917
410.7799937
411.1635246
137.9245906
309.7956239
369.0243306
399.2899888
409.5056329
411.6764058
411.1431285
410.9182406
411.0466743
137.9497859
309.8665054
369.1173128
399.4144376
409.751509
412.1128112
411.6546116
411.1985054
410.9764066
137.9863074
309.9499605
369.2146696
399.5610502
410.0681901
412.675972
412.3034605
411.5845487
410.9913534
138.0298364
310.0365515
369.3041879
399.713337
410.4379967
413.3602871
413.1074002
412.1244475
411.1698961
158.9649138
318.7751584
374.3214374
402.6961271
412.8985563
415.9021226
415.7612764
414.6732489
413.5441295
161.4933929
328.0275414
391.7828064
424.230513
429.6802312
424.5842488
416.1212801
411.5860756
411.2591944
162.3809214
329.6913454
393.7678234
426.562817
432.0550468
426.6116013
417.375568
411.9497939
411.1299605
163.1184932
330.9057402
394.8683413
427.3677595
432.3119751
426.5735133
417.4412888
412.0682583
411.1272949
163.6997456
331.6192575
395.047969
426.7023714
430.619132
424.6248872
416.2942286
411.8314371
411.2047492
164.1297707
331.8652179
394.413159
424.8990609
427.6690023
421.6591281
414.6012682
411.4814702
411.3880014
164.3510389
331.6314966
393.101141
422.407889
424.3561339
418.7684384
413.1806036
411.3536024
411.7297338
164.3037044
330.9415769
391.3626274
419.7715719
421.4610851
416.6587496
412.4151333
411.551236
412.214624
164.0224302
330.0009356
389.6100273
417.5082923
419.4071798
415.4653933
412.2203091
411.9634358
412.76772
163.7312391
329.2793229
388.4433129
416.1370189
418.3449017
414.9872368
412.2867745
412.3316475
413.1902191
150.1649382
326.8406351
390.3615414
422.7597012
428.3098503
423.4551287
415.3765156
411.229456
411.1499186
150.9822965
328.4399935
392.2419672
425.0041084
430.6108624
425.4257417
416.5907402
411.5649907
410.9933185
151.6647109
329.6437667
393.3375432
425.8387714
430.9080127
425.4209232
416.6725962
411.6841028
410.9810165
152.1809278
330.3767955
393.5816371
425.2716576
429.3243671
423.5613949
415.5756014
411.4663377
411.0670807
152.5313982
330.6544889
393.0554696
423.607122
426.5285188
420.7248104
413.9594413
411.1535488
411.2793288
152.68896
330.4717956
391.8845397
421.2833136
423.3951073
417.9874479
412.6416696
411.0874433
411.6673027
152.6217456
329.8599679
390.3089063
418.8299841
420.6806367
416.0279408
411.9881059
411.3622761
412.202164
152.3654979
329.0084291
388.7151577
416.7343568
418.7707001
414.9473008
411.8865292
411.8451333
412.7952971
152.1098649
328.3473731
387.6516448
415.4648682
417.7816093
414.5241075
412.0063467
412.2568704
413.2403714
149.5864677
325.2452456
387.7690999
419.9207651
425.5880888
421.2597726
414.0005016
410.5436264
410.7896988
150.2553648
326.5343223
389.3208601
421.8543062
427.6237009
423.0375613
415.103597
410.8327516
410.606346
150.8189533
327.5533288
390.3110719
422.6603817
427.947272
423.0697749
415.2040063
410.9513695
410.5818009
151.2444805
328.2241455
390.6441325
422.2809679
426.6058302
421.4155057
414.217445
410.7602999
410.6623981
151.5305426
328.5408341
390.3547645
420.9528246
424.1942225
418.8950741
412.7677005
410.4913581
410.8894369
151.6673178
328.4983178
389.5360727
419.0655288
421.5216127
416.5274401
411.6499336
410.4994205
411.3332713
151.6395384
328.1247086
388.3857005
417.0896762
419.2684377
414.916612
411.1925412
410.8782948
411.9609119
151.4684933
327.5532656
387.2037244
415.4171835
417.7203575
414.0772988
411.2264671
411.4597908
412.6527682
151.286705
327.0908354
386.4037562
414.3996276
416.9171313
413.7554394
411.4003313
411.9282849
413.1639513
149.1887693
323.5862487
384.4075614
416.1162899
421.8981542
418.3894157
412.3602213
409.7854067
410.2839664
149.582606
324.3542651
385.411497
417.4800696
423.4304009
419.7974216
413.2588668
410.0202927
410.1220875
149.9259658
325.0220636
386.1438673
418.1264406
423.7112266
419.8391232
413.3619373
410.1290083
410.0947433
150.1931145
325.5295655
386.5157477
417.9631222
422.7188388
418.5072204
412.5524278
409.9674109
410.1413376
150.3821284
325.8553963
386.5154588
417.1305633
420.915762
416.5005676
411.3689769
409.7322064
410.3130907
150.4944798
325.9883289
386.1838415
415.9161724
418.9694881
414.6997326
410.5174157
409.7646627
410.7226211
150.5293511
325.943618
385.6406554
414.6665984
417.4139636
413.5789186
410.2654334
410.1772947
411.3833327
150.4975905
325.7888002
385.0602407
413.6291638
416.4032823
413.0631611
410.4085193
410.7969898
412.1653579
150.4479407
325.6488521
384.6615802
412.9977408
415.8892854
412.8827326
410.6065951
411.2838289
412.7557172
148.4229316
321.3388822
380.325466
411.7048682
417.8439272
415.4959431
410.9798663
409.3502798
409.997386
148.5935887
321.6504849
380.7709298
412.4285678
418.7814683
416.4509915
411.6244837
409.5304079
409.8955624
148.7578289
321.9841287
381.1765279
412.8242663
418.9569434
416.4685255
411.6927669
409.595846
409.8618018
148.892653
322.3026445
381.492983
412.815614
418.3194687
415.5017139
411.0751875
409.4449591
409.8583295
148.9949535
322.5833455
381.688484
412.4576024
417.1744624
414.0791364
410.1947864
409.2280683
409.9225555
149.073873
322.8140189
381.7565015
411.9111617
415.9890872
412.8633234
409.5882128
409.2100265
410.1692523
149.1399714
322.999162
381.7367372
411.3741406
415.1170517
412.1736713
409.4389038
409.5088731
410.6820054
149.2017113
323.1608874
381.6946626
410.9647562
414.6228065
411.9182091
409.582543
410.0148749
411.3942956
149.2483835
323.2800568
381.6721181
410.7334061
414.4068625
411.8651143
409.7539251
410.4309472
411.9740259
147.2094761
318.3887661
375.3852917
406.7398406
413.8247281
413.1192964
410.2952537
409.4958283
410.0981929
147.2774146
318.4528464
375.4566757
406.985489
414.2851511
413.6941845
410.7237755
409.6245299
410.0288357
147.3465018
318.5626738
375.5842358
407.1408359
414.3436454
413.6687019
410.713737
409.5983907
409.9604044
147.4001977
318.7074365
375.7658098
407.17483
413.9624438
413.0028171
410.2177879
409.4020548
409.9029969
147.4379217
318.8798607
375.981311
407.0994675
413.3179495
412.0593243
409.5635122
409.1689684
409.8746406
147.4723889
319.075645
376.2053879
406.9775917
412.6860566
411.2688458
409.0966333
409.0530949
409.9325828
147.5179473
319.2941582
376.4285111
406.8915683
412.2665356
410.813317
408.901862
409.1233632
410.1683696
147.5805886
319.5316932
376.6502709
406.8798544
412.0908022
410.6450575
408.8994996
409.3587066
410.6080292
147.6359637
319.7169049
376.8158141
406.907786
412.0611607
410.6255048
408.9614013
409.593638
411.017866
145.3051542
314.5862498
369.6718927
401.3034864
410.0745442
411.4901584
410.4208582
410.1922028
410.4952912
145.3300143
314.5461015
369.5696012
401.295881
410.250191
411.8204111
410.6931034
410.2418306
410.3847109
145.3448894
314.5158076
369.5092207
401.2712725
410.202956
411.7358255
410.5826096
410.1078774
410.26954
145.3423636
314.5054123
369.5210355
401.2447783
409.938775
411.2517262
410.1340308
409.8531605
410.1839412
145.3267487
314.5282261
369.611932
401.226847
409.5612698
410.612921
409.6095217
409.605389
410.1319327
145.3118052
314.5942796
369.7670938
401.2345945
409.2126554
410.0680444
409.2084969
409.4343093
410.1153577
145.3116009
314.7074023
369.967056
401.2907793
408.9907657
409.6984583
408.928816
409.3295003
410.1659445
145.3318177
314.8598358
370.1904839
401.3982617
408.9150993
409.4908854
408.737975
409.2988637
410.3283789
145.3568408
314.9887514
370.3626522
401.5002315
408.9253127
409.4110718
408.6437844
409.3214215
410.5102506
141.8319662
311.0743188
366.851718
398.3713099
408.8686068
412.0346131
412.0623319
411.5371046
410.9867025
141.8456032
311.0291462
366.7349537
398.3055333
408.9592517
412.2744837
412.2107736
411.3916677
410.6518941
141.8408144
310.955019
366.6065978
398.2025636
408.862832
412.1197189
411.9337604
411.0479428
410.3638296
141.8152576
310.865971
366.5025884
398.0981512
408.6218197
411.6698865
411.4249646
410.7091056
410.2343036
141.7747467
310.7837347
366.4482651
398.015049
408.3115419
411.1140047
410.9050204
410.4661493
410.2213052
141.7309654
310.7281374
366.4495892
397.9637319
408.0095423
410.6054701
410.4911318
410.3253704
410.2815678
141.6958634
310.7119126
366.5012144
397.9524407
407.7707595
410.1904606
410.1485689
410.2191905
410.3826927
141.6765418
310.7374818
366.5912982
397.9811413
407.6170809
409.8687805
409.8372401
410.1138384
410.5132389
141.6708398
310.7760851
366.6734163
398.0207277
407.5470048
409.6778838
409.6241504
410.0399137
410.6249774
190.3899939
331.9630625
381.9550155
407.2315376
416.5029402
419.3848156
419.2313498
418.0218249
416.8497868
200.91181
336.4569786
384.5919909
408.8481342
417.8659587
420.7097852
420.3522555
418.64891
417.0863871
200.9229755
336.4434499
384.5329675
408.7978166
417.8174247
420.526376
419.8707857
417.7064464
415.7171111
200.9195651
336.3991861
384.448179
408.7005443
417.6002979
420.0256943
419.1611342
416.9483355
414.9229811
200.9034925
336.3366119
384.3579195
408.5763806
417.2775037
419.3905977
418.4492304
416.4192519
414.5271201
200.8802725
336.2694623
384.275352
408.4404086
416.9127717
418.7573106
417.8387435
416.0760783
414.3793796
200.8551006
336.2076285
384.2064674
408.3068175
416.5594377
418.1918174
417.32923
415.8461154
414.3924806
200.8316897
336.1575256
384.1542675
408.188427
416.2539391
417.7160062
416.8890339
415.6652629
414.4951221
211.2721331
340.517516
386.698894
409.639591
417.204244
418.3963146
417.4903277
416.3499138
415.3371487
326.622412
392.1980704
420.2899838
432.1886747
436.6158129
437.5732966
437.17536
437.8509951
439.7978856
337.2215885
396.7856152
423.0660245
433.934967
438.0653224
438.9391989
438.3061993
437.9886338
438.7158248
337.2468954
396.8418105
423.1061728
433.958593
438.0635608
438.7703365
437.7282972
436.1863923
435.2353775
337.2730373
396.8783012
423.1052204
433.9165247
437.8952346
438.280548
436.8732047
434.7120941
432.9271053
337.2949941
396.8950071
423.0689003
433.8162801
437.6083651
437.6397783
435.9562252
433.539315
431.4274528
337.3125091
396.8932734
423.0036573
433.6718409
437.2575739
436.9761021
435.1097052
432.6199261
430.4315553
337.3248231
396.8717719
422.9141004
433.5000291
436.8905341
436.3649873
434.399656
431.9432716
429.8138418
337.3303689
396.8312759
422.8084117
433.3209383
436.5479609
435.8486463
433.8396385
431.4706216
429.4750598
347.9155934
401.2961188
425.4153981
434.8017727
437.5314013
436.5747683
434.4778175
432.1001959
430.1612999
428.9655196
442.3257444
452.8904637
456.1915071
456.8242071
456.302533
456.0076537
459.6992297
466.3603968
429.0400235
442.5277872
453.128088
456.4487251
457.1463552
456.6712297
456.1270711
458.2984738
462.8244688
429.0533409
442.5938169
453.1897613
456.4716567
457.1345685
456.5099173
455.5294446
455.9930981
457.9369185
429.0837362
442.6545363
453.2168087
456.442066
456.9934218
456.0753887
454.6788347
454.1159837
454.556245
429.1173889
442.7029504
453.2096749
456.3632261
456.7583436
455.5079891
453.733583
452.5462893
452.1929405
429.1489953
442.7339426
453.1693704
456.2448003
456.4698861
454.9183183
452.8418683
451.2520657
450.4688484
429.1770653
442.7416352
453.096489
456.0995739
456.1653972
454.3785887
452.1125571
450.2888566
449.2707707
429.1995599
442.7238363
452.9977241
455.9452195
455.882241
453.937041
451.5843731
449.6470418
448.5073304
429.2104009
442.6839645
452.8883207
455.8036679
455.6537281
453.6260168
451.269112
449.3024561
448.1124023
452.1797475
459.6062263
466.3827145
468.2878823
467.8267336
466.7757997
466.4287408
471.5484306
480.4658885
452.2470063
459.7809777
466.5395458
468.4022381
467.9971353
466.9874839
466.3205282
469.6931108
476.2248532
452.2757424
459.857013
466.5776491
468.3773004
467.9627067
466.8366352
465.7258259
467.2631669
470.9964412
452.3288172
459.9298337
466.5851206
468.3232137
467.8359359
466.4569426
464.9433792
465.3443335
467.3516246
452.3839482
459.9869047
466.5638435
468.2460662
467.6470405
465.9673087
464.0762373
463.7415582
464.7587287
452.4298517
460.020631
466.5157682
468.1532492
467.4280835
465.4674121
463.26678
462.4224286
462.835157
452.4652403
460.0270047
466.4427995
468.0528595
467.2082554
465.0246071
462.6331218
461.4691956
461.4975108
452.4899662
460.0061044
466.3518382
467.9563484
467.0158752
464.680146
462.2124049
460.8797332
460.667902
452.4988569
459.9619622
466.2563742
467.8774789
466.8727853
464.4571919
462.0102029
460.6277513
460.2837767
462.7824386
468.0117236
473.1229342
474.2989377
473.4671901
472.3144015
472.0188056
477.8160988
487.7103874
462.8648281
468.1762135
473.1990596
474.2781628
473.515216
472.417741
471.7754805
475.7101422
483.1150239
462.9275215
468.2672587
473.1931383
474.1937588
473.4640407
472.2922301
471.2243928
473.2608199
477.7473399
463.0082685
468.3421864
473.1548034
474.1116294
473.3693425
471.9955171
470.5533854
471.3883501
474.017225
463.0798543
468.3862472
473.0912685
474.0413866
473.258538
471.6263156
469.8106783
469.8389471
471.3773333
463.1278505
468.3938104
473.0107059
473.9887667
473.1529409
471.263911
469.1195217
468.5761321
469.4442064
463.151639
468.3662083
472.9207945
473.9566065
473.0645165
470.9542088
468.5930038
467.6952705
468.143701
463.1533926
468.3086804
472.8312011
473.9476274
473.0008917
470.7190962
468.2642822
467.1963082
467.3942246
463.1311279
468.2290406
472.7542098
473.9634674
472.9645065
470.5704834
468.1379741
467.048872
467.1237903
468.1328297
471.8540578
475.7953437
476.6103539
475.836098
474.8923562
474.8311797
481.226636
491.8476747
468.2207212
472.0085312
475.8191533
476.519836
475.8327324
474.9550996
474.5362665
478.9404955
486.881805
468.2968808
472.0890477
475.7636732
476.406301
475.8004054
474.8919931
474.0795789
476.4928746
481.3349411
468.3776375
472.1344356
475.6723718
476.32281
475.7704744
474.7131667
473.5549701
474.6942448
477.5583398
468.4360207
472.1337234
475.5609665
476.2803773
475.7648902
474.4915922
472.9504319
473.2240379
474.9541978
468.4593169
472.0883485
475.4465187
476.2822854
475.7883868
474.2768108
472.3716544
472.0397868
473.1039099
468.4493193
472.0073435
475.3430245
476.3247435
475.8283419
474.087368
471.9332456
471.2482731
471.9187757
468.4113944
471.9022962
475.2615797
476.3994997
475.8696866
473.9309562
471.672701
470.8479533
471.3014354
468.3488288
471.7864096
475.2115368
476.4950266
475.9012431
473.8201583
471.5983055
470.7997725
471.165761
471.095902
473.7511069
476.7354809
477.3019776
476.6860106
475.9825282
476.1573104
483.0191818
494.2096576
471.1662023
473.8765202
476.7280875
477.2015199
476.6942952
476.07674
475.8952408
480.5979029
488.8064161
471.2279652
473.9263079
476.6410993
477.0970201
476.7086829
476.1012239
475.550879
478.1473798
483.0652241
471.2852149
473.9300989
476.5171643
477.0327326
476.7436718
476.0260241
475.1390961
476.4177694
479.326075
471.3148104
473.8837938
476.3806283
477.0219008
476.8168997
475.9057278
474.6158208
475.0242029
476.852522
471.3085081
473.7967865
476.2553316
477.0645669
476.9155196
475.7702193
474.0967691
473.9257789
475.1583275
471.2708175
473.6840365
476.1571252
477.148869
477.0076794
475.6281361
473.711901
473.2356321
474.1341176
471.2096686
473.5607448
476.0941489
477.2576418
477.0712259
475.4922246
473.5028934
472.9401858
473.6675794
471.1325053
473.4422777
476.0704746
477.3733192
477.0994564
475.385524
473.4732583
472.9854571
473.6633006
472.5454383
474.5418084
476.9204805
477.4072782
476.9721091
476.4891918
476.8731788
483.9787848
495.451677
472.5945435
474.64024
476.9045564
477.3242482
477.0069296
476.6205927
476.6388431
481.4221651
489.6146509
472.6360081
474.6634849
476.8093013
477.2367338
477.0440892
476.6727332
476.3110062
478.9271513
483.7686397
472.6700383
474.6398887
476.6787
477.1841996
477.0904097
476.6013103
475.8855823
477.2305349
480.1948578
472.6792136
474.5727345
476.5438389
477.1855431
477.1700775
476.4783356
475.3543399
475.9045779
477.9290555
472.6597606
474.4763757
476.4298199
477.2367971
477.2616632
476.3356097
474.8548388
474.9043729
476.4270034
472.6172982
474.3670059
476.3489808
477.3198803
477.3304578
476.1871205
474.5145177
474.3250939
475.5712711
472.5600213
474.258942
476.3047375
477.4163058
477.3635597
476.0534062
474.3596596
474.1295546
475.2428236
472.4961134
474.1653857
476.2974728
477.5122133
477.3657939
475.9580858
474.3769283
474.2514591
475.3466311
473.0447096
474.7844886
476.8969188
477.3772544
477.0696487
476.7537875
477.2670894
484.3627866
495.8222047
473.0875584
474.870958
476.8819372
477.3078012
477.1039396
476.8524213
476.9573875
481.640953
489.6704944
473.1198507
474.8804514
476.7883547
477.2268505
477.1161142
476.8223324
476.5053781
479.0860162
483.9059204
473.1431376
474.8460721
476.6634908
477.1748704
477.1265805
476.6659863
475.980953
477.439983
480.6368025
473.1470899
474.7782768
476.5421094
477.1762839
477.1745772
476.4946005
475.4278427
476.2102523
478.6213508
473.1303044
474.6918492
476.4454981
477.2230982
477.2358441
476.3355032
474.9702166
475.3349638
477.3152796
473.0969733
474.6000034
476.3810508
477.2951988
477.2787365
476.1955005
474.6977449
474.87561
476.615515
473.0533455
474.5139348
476.3498749
477.3769925
477.2965861
476.0880043
474.6095596
474.7748179
476.405692
473.0061296
474.4438833
476.3518865
477.4590944
477.2964739
476.0266441
474.6802214
474.966814
476.6002089
473.0744431
474.7964956
476.8534826
477.3335241
477.0858154
476.8652142
477.4080877
484.3646663
495.6084271
473.1223306
474.8823949
476.8386533
477.2669294
477.0998347
476.8892482
476.9753539
481.5141465
489.2918456
473.154339
474.8854967
476.7446374
477.1851329
477.0749653
476.7551016
476.3919908
478.9473159
483.7709739
473.1752758
474.8468195
476.623757
477.1325873
477.0542006
476.5285889
475.8073529
477.3877748
480.8170955
473.1803303
474.7818499
476.5120635
477.1357514
477.0851117
476.3373931
475.2689327
476.2588668
479.0066271
473.1685021
474.7036757
476.4266346
477.1834934
477.1380889
476.1889139
474.8675787
475.4894159
477.8493818
473.1420201
474.6222855
476.3719039
477.2554178
477.1806674
476.0747236
474.6580757
475.1220217
477.2645499
473.1053431
474.5467939
476.3486422
477.337224
477.205099
475.9985853
474.6238375
475.0921187
477.142253
473.064114
474.4862329
476.3571317
477.4201161
477.2152701
475.9676829
474.7383723
475.3409832
477.4079764
379.5231748
414.5926628
433.3045216
439.4878585
441.0169917
439.5632067
437.2581017
434.6749396
432.6330875
400.467621
423.2413039
438.3423944
442.4273408
443.1672578
441.4013133
438.9856292
436.2986981
434.2013378
400.4408799
423.1758939
438.288077
442.3947601
443.1474263
441.4467635
439.1427949
436.5729683
434.551236
400.3990844
423.1065346
438.2579255
442.4131073
443.2252715
441.6545578
439.5124056
437.0867008
435.1439287
400.3575583
423.0522927
438.264696
442.4891305
443.4053649
442.0283509
440.1129045
437.9115897
436.1150723
400.3293891
423.0265959
438.3124734
442.6181657
443.6771752
442.5508972
440.9416129
439.1462366
437.7111366
400.318032
423.032712
438.3958845
442.785521
444.019921
443.1851052
441.9091213
440.7870474
440.2062771
400.3211086
423.0665696
438.5035529
442.9709671
444.3974541
443.8453952
442.8581738
442.8853585
444.1344965
400.3885319
423.2035226
438.693261
443.2388322
444.8315255
444.4938919
443.7650145
445.2060868
448.8150391
429.1988083
442.6232558
452.781321
455.687916
455.494049
453.4540743
451.1642422
449.2391732
448.0516304
429.1884453
442.5692681
452.7051524
455.6240382
455.4251262
453.435038
451.2756907
449.4615319
448.3240389
429.1719972
442.5109155
452.6530763
455.6089844
455.4450553
453.5639224
451.5970574
449.9758769
448.9538139
429.1466557
442.4502179
452.6261994
455.6418332
455.5499865
453.8318931
452.121165
450.8037498
450.0042425
429.1169686
442.3997302
452.6338206
455.7242567
455.735197
454.2222752
452.8256193
451.9713106
451.5857506
429.0917836
442.3713254
452.679138
455.8483639
455.9847333
454.7050303
453.6669274
453.503992
453.8687662
429.0754146
442.3699101
452.7569557
455.997814
456.2770077
455.2407929
454.5310321
455.3202184
457.0080913
429.0692671
442.3930267
452.8553006
456.152855
456.5803521
455.7537863
455.2621529
457.4049384
461.3837489
429.1469958
442.5741287
453.1108434
456.4839235
457.0639113
456.408544
456.105396
459.7481844
466.4617135
452.4809493
459.8976425
466.1703047
467.8249788
466.7858595
464.360209
462.0230318
460.6992243
460.3170587
452.4520567
459.8293201
466.109771
467.8107681
466.7640878
464.3941167
462.2489023
461.0945402
460.7711971
452.4178031
459.7580382
466.0742681
467.8332011
466.805597
464.5513249
462.6735232
461.8153947
461.6720211
452.3787347
459.6888267
466.064442
467.8879252
466.9035757
464.8147198
463.2704511
462.8630424
463.0694437
452.3348482
459.6315248
466.0857727
467.9728711
467.052386
465.1610723
463.9929138
464.2248088
465.034947
452.293886
459.5976045
466.1395129
468.0792498
467.2392677
465.5597163
464.7784187
465.8802441
467.6764151
452.2620646
459.5932768
466.2199087
468.1920954
467.4488596
465.9774688
465.509044
467.713273
471.0769219
452.2455958
459.6171337
466.3139304
468.2946988
467.6582043
466.3519285
466.0360983
469.6682504
475.5098723
452.3065274
459.7707881
466.5030108
468.4852487
467.9561989
466.7648565
466.5227894
471.5341754
480.0775061
463.0767227
468.1340695
472.7014884
474.0018946
472.9508346
470.5119241
468.2121444
467.2338316
467.2954125
463.0069733
468.0385243
472.679114
474.0596271
472.9602214
470.5488856
468.4811887
467.7410211
467.9011452
462.9363315
467.9508706