/*--------------------------------*- C++ -*----------------------------------*\
| =========                 |                                                 |
| \\      /  F ield         | OpenFOAM Extend Project: Open source CFD        |
|  \\    /   O peration     | Version:  1.6-ext                               |
|   \\  /    A nd           | Web:      www.extend-project.de                 |
|    \\/     M anipulation  |                                                 |
\*---------------------------------------------------------------------------*/
FoamFile
{
    version     2.0;
    format      ascii;
    class       volVectorField;
    location    "0";
    object      U;
}
// * * * * * * * * * * * * * * * * * * * * * * * * * * * * * * * * * * * * * //

dimensions      [0 1 -1 0 0 0 0];

internalField   nonuniform List<vector> 
2916
(
(-16.19179428 2.321176435 -0.6057549475)
(-6.745930624 1.51478828 -0.3179105799)
(-3.283999971 1.530000642 -0.1736888888)
(-1.160739178 1.498076994 -0.05710168759)
(0.2692141833 1.350599332 0.07214605202)
(0.8304713604 1.047880358 0.1475484535)
(0.8509944019 0.6197125333 0.1473187957)
(0.4702374049 0.2182213503 0.08767101196)
(0.1209565966 0.02087390474 0.02355903457)
(-16.09457739 1.649083964 -0.3255558115)
(-6.653841937 1.116975362 -0.09485236805)
(-3.213674861 1.161028053 0.01787008165)
(-1.139455563 1.107330038 0.08448491128)
(0.2424262996 0.9496942726 0.1502091815)
(0.7682551988 0.7008714302 0.1675684456)
(0.7873640215 0.397872545 0.1334447461)
(0.4349147118 0.1412283251 0.06663965332)
(0.1128773357 0.01655296311 0.01450054062)
(-15.77319235 0.3997011623 0.08534265264)
(-6.449259126 0.2730848977 0.1935584284)
(-3.0731109 0.3158651233 0.2328101354)
(-1.100991843 0.2611714567 0.218633073)
(0.2302577675 0.1803966166 0.2075715712)
(0.7508175782 0.1195284086 0.177712842)
(0.7771207847 0.07553746788 0.1244857217)
(0.430624748 0.05646244906 0.05525814833)
(0.111702316 0.02451552243 0.009690633568)
(-15.26735652 -1.46646611 0.3872610893)
(-6.276202072 -0.9855588732 0.3225743984)
(-2.976641743 -0.8709810679 0.2716238078)
(-1.068652052 -0.7951376839 0.2105497761)
(0.2631181658 -0.6868462014 0.1823130008)
(0.8334664212 -0.4927041549 0.1680868025)
(0.8678847351 -0.2440611212 0.1354392534)
(0.474934486 -0.02374408737 0.07292908287)
(0.1171623047 0.03317776249 0.01747400039)
(-15.00360381 -3.636994036 0.3524547574)
(-6.275110717 -2.190737623 0.1780728096)
(-3.003585356 -1.841116471 0.08864877547)
(-1.066187963 -1.561504577 0.05125984398)
(0.320712623 -1.27446074 0.06550542067)
(0.9775840323 -0.9161742261 0.1067849232)
(1.040397187 -0.4794548511 0.1270624462)
(0.5814724008 -0.100087479 0.09382467729)
(0.142634735 0.02921593746 0.03040678314)
(-15.0447404 -5.465646261 -0.01039768007)
(-6.325672324 -2.977828966 -0.1167645259)
(-3.060934581 -2.354861175 -0.1598781014)
(-1.087986967 -1.935335807 -0.1412829598)
(0.3577305298 -1.545269482 -0.08171324098)
(1.106970678 -1.113956202 0.005770570836)
(1.226528958 -0.59320957 0.08516053499)
(0.7240849685 -0.1429541356 0.09940470969)
(0.187940716 0.023004029 0.04092508633)
(-15.00106925 -6.671952802 -0.4348152167)
(-6.320141522 -3.440332465 -0.3671841593)
(-3.101531028 -2.610460337 -0.3341704329)
(-1.13777974 -2.101608696 -0.2791239756)
(0.3421748218 -1.640673354 -0.2003090897)
(1.171899088 -1.161073968 -0.09088051318)
(1.363974835 -0.6049895183 0.03497259334)
(0.85671176 -0.1438348227 0.09762233293)
(0.238663038 0.02210066333 0.04962936655)
(-14.84780491 -7.439311989 -0.7393888769)
(-6.310424374 -3.729561565 -0.5274744501)
(-3.170675462 -2.729506125 -0.4466872214)
(-1.242675305 -2.127351755 -0.3843419847)
(0.2520995475 -1.593091757 -0.3053451737)
(1.152313881 -1.077430943 -0.1868201083)
(1.439018551 -0.5256148896 -0.02378411572)
(0.9809810172 -0.1043237054 0.08771409282)
(0.3003180311 0.02855910876 0.05601421998)
(-14.7338838 -7.980945968 -0.9343517226)
(-6.332184715 -3.90135543 -0.6380898322)
(-3.284176943 -2.726799226 -0.5390052726)
(-1.413111049 -2.009691855 -0.4837066167)
(0.07441729943 -1.385107874 -0.4143575933)
(1.030114531 -0.8402204889 -0.2943388078)
(1.43339049 -0.330972246 -0.1012771051)
(1.087579808 0.0006942757469 0.06107042903)
(0.3720686768 0.05550815639 0.05648341598)
(-23.02609423 2.50525568 -1.620373269)
(-14.05978292 2.4225874 -1.133097722)
(-6.988086838 2.540823926 -0.7103697619)
(-2.589704894 2.639240454 -0.3412865113)
(0.4633499331 2.601283047 0.07554083122)
(1.859773485 2.276754454 0.3667261291)
(2.135046042 1.5847317 0.4640094869)
(1.371846992 0.7312639376 0.3509147761)
(0.4180794089 0.1474708608 0.1207895198)
(-22.91712863 1.618152216 -0.9964755804)
(-13.91080269 1.745365234 -0.4886982991)
(-6.851488921 1.969192108 -0.1129832755)
(-2.506422031 2.04701388 0.1500012067)
(0.4589149308 1.959682058 0.4136596564)
(1.757538362 1.63846459 0.5364477229)
(1.989213959 1.091461237 0.49689999)
(1.264716156 0.5034345633 0.3127836443)
(0.3852030827 0.1093716583 0.09494201612)
(-22.67901185 0.05475348494 0.03164115297)
(-13.62267137 0.297021221 0.4430549921)
(-6.624243062 0.5030532552 0.6254315808)
(-2.408971805 0.4992037645 0.6430463671)
(0.4708159804 0.4390936187 0.6776154488)
(1.735491976 0.3487673901 0.6402309224)
(1.959478282 0.2441141658 0.5078178104)
(1.239738013 0.1776517623 0.2871095958)
(0.3756634793 0.07446192482 0.07952540153)
(-22.37678751 -2.275885312 0.78230206)
(-13.38040619 -1.949058613 0.866055205)
(-6.481448521 -1.675010477 0.7580905454)
(-2.385585359 -1.536251884 0.5907390751)
(0.5007261416 -1.353852084 0.5414457736)
(1.874353047 -1.034220552 0.5339728207)
(2.147025982 -0.5868182061 0.4770965817)
(1.352980551 -0.1204145785 0.3130563928)
(0.3981871067 0.04803672287 0.09893706147)
(-22.16609597 -4.848945143 0.6083302232)
(-13.36014332 -4.039898605 0.3680434537)
(-6.542630824 -3.361162632 0.1273474289)
(-2.457459764 -2.873877186 0.02075894458)
(0.5167998344 -2.404908435 0.0790114619)
(2.069562491 -1.817288556 0.22809711)
(2.445934934 -1.056321868 0.3547539088)
(1.575498855 -0.302206542 0.3313232962)
(0.4628265844 0.02573815713 0.1303523653)
(-21.99299434 -6.868832763 -0.3077602248)
(-13.39874275 -5.357343389 -0.5338866907)
(-6.663631925 -4.200728596 -0.638316786)
(-2.559793517 -3.458653752 -0.5649832357)
(0.4983480489 -2.804782775 -0.3794607511)
(2.20283517 -2.087156875 -0.1133044442)
(2.700408941 -1.197843784 0.1755076327)
(1.814762153 -0.3506008932 0.3098689065)
(0.5524034835 0.02119830645 0.1519112603)
(-21.74540827 -8.269502104 -1.253731072)
(-13.363975 -6.217312124 -1.218749782)
(-6.758525642 -4.701398315 -1.107391953)
(-2.69206016 -3.790429563 -0.932182237)
(0.4025868941 -2.991426505 -0.7000550386)
(2.211096929 -2.156393538 -0.3875776769)
(2.825757346 -1.177826032 0.009905757967)
(1.992942809 -0.3142646775 0.2783534203)
(0.6365721522 0.03309741764 0.1676315884)
(-21.50350297 -9.330246168 -1.883854423)
(-13.33598029 -6.85884228 -1.630293523)
(-6.902622153 -5.021620652 -1.399516825)
(-2.930241579 -3.921492501 -1.221073032)
(0.1586766904 -2.965738239 -0.9975607357)
(2.049304923 -2.036178558 -0.6626355164)
(2.816085494 -1.027718474 -0.1717765696)
(2.133697475 -0.2170524611 0.2279203695)
(0.731819341 0.05745035788 0.1757305084)
(-21.31736147 -10.20750342 -2.273562824)
(-13.35906912 -7.331089002 -1.92282185)
(-7.130583112 -5.148606631 -1.661532574)
(-3.301383461 -3.811787281 -1.516584382)
(-0.262139446 -2.660915063 -1.325070948)
(1.692400784 -1.652008452 -0.9820033818)
(2.655661564 -0.6874431133 -0.4084884113)
(2.231780372 -0.01082640299 0.1296926417)
(0.8392019495 0.1183072983 0.1655054122)
(-23.86704421 1.392918615 -3.028821559)
(-14.8455472 1.21293359 -2.294127523)
(-7.680275337 1.324877604 -1.616292925)
(-3.148845174 1.539128249 -0.978076445)
(0.1497008987 1.754366955 -0.2445467249)
(1.940082212 1.883885831 0.3511128844)
(2.620386801 1.693263957 0.7231748278)
(1.999692384 1.064531786 0.7350366845)
(0.7127566845 0.3142493131 0.3125815258)
(-23.774888 0.5492867056 -2.268568581)
(-14.70055056 0.6882748312 -1.426827077)
(-7.491744839 1.006837358 -0.7150164098)
(-2.948679127 1.303101681 -0.1259380704)
(0.2746708921 1.522389245 0.4700068664)
(1.93669827 1.564961925 0.8401902286)
(2.514846479 1.322099727 0.9529636816)
(1.876691833 0.8112635079 0.7561238875)
(0.662891768 0.2456306119 0.2858262539)
(-23.65279696 -0.6487718587 -0.8425600583)
(-14.49652412 -0.2287908635 0.01392839422)
(-7.257642028 0.1563240426 0.5590002411)
(-2.749305925 0.3566211755 0.8396171927)
(0.3882739727 0.4737629717 1.109902562)
(1.966714587 0.4810577253 1.187898014)
(2.495381951 0.4083891395 1.078277461)
(1.835614953 0.3149572737 0.7519426665)
(0.6422996731 0.1312183379 0.264416612)
(-23.55132859 -2.187385414 0.2542993545)
(-14.36036773 -1.621595664 0.7260817405)
(-7.184170826 -1.220840167 0.8443616697)
(-2.789693702 -1.056602398 0.7695187562)
(0.3346653835 -0.9294739497 0.8365373721)
(2.000594809 -0.7697619819 0.895179235)
(2.613391217 -0.5122228838 0.8973823802)
(1.9356053 -0.1451025253 0.7181759885)
(0.6693469597 0.03203800404 0.2775907549)
(-23.43214398 -3.788339735 0.01442085569)
(-14.37251697 -2.891273962 -0.03247485915)
(-7.343942631 -2.232956069 -0.1958253113)
(-3.056074041 -1.868177539 -0.2758230033)
(0.1243331703 -1.579767787 -0.1079688182)
(1.956482925 -1.262227774 0.1748823406)
(2.71926412 -0.8389394604 0.495783521)
(2.07860699 -0.3055336908 0.629586663)
(0.7251523535 0.0001966293147 0.2988451092)
(-23.22818257 -5.109892931 -1.220591949)
(-14.42777715 -3.776627162 -1.354084217)
(-7.555243037 -2.79505984 -1.385571432)
(-3.311157936 -2.233459582 -1.215969575)
(-0.07510626401 -1.793208523 -0.8691967921)
(1.856400562 -1.348925163 -0.419434442)
(2.71460612 -0.8253376678 0.1253593308)
(2.154365303 -0.2622964215 0.5161184395)
(0.7726231501 0.02210433737 0.3055765336)
(-22.98406614 -6.282558928 -2.43597184)
(-14.4252065 -4.591274027 -2.273365046)
(-7.694972131 -3.343978345 -2.029009337)
(-3.50181413 -2.632985727 -1.70732106)
(-0.2657787736 -2.061492903 -1.300934812)
(1.680471536 -1.474687108 -0.8004985515)
(2.577797636 -0.8053726634 -0.137509395)
(2.12446593 -0.1889333749 0.4264500213)
(0.7876897119 0.05526072413 0.308575046)
(-22.75496123 -7.422782496 -3.213273644)
(-14.39477676 -5.373613617 -2.786442194)
(-7.835746759 -3.839840167 -2.410980347)
(-3.764799255 -2.947654079 -2.113206337)
(-0.5944032209 -2.228560812 -1.744659071)
(1.334567337 -1.533353696 -1.215544278)
(2.297478999 -0.7693291087 -0.4253142988)
(2.02797689 -0.1219407879 0.3165934581)
(0.7946854899 0.08304428526 0.3011544577)
(-22.52273276 -8.526563876 -3.682171595)
(-14.37395533 -6.089574737 -3.163496534)
(-8.040782408 -4.233445933 -2.793044535)
(-4.159644208 -3.116263622 -2.583555356)
(-1.10535449 -2.203564165 -2.28896726)
(0.8071957438 -1.410380445 -1.745097897)
(1.890142628 -0.6223431733 -0.8206434176)
(1.891768952 -0.003976414588 0.1297970127)
(0.8084220922 0.1273149738 0.2655802615)
(-24.13331046 1.171757591 -4.696818278)
(-15.3425924 0.5863356094 -3.756500254)
(-8.35301867 0.4137200817 -2.860306585)
(-3.883489033 0.4591079591 -1.983705654)
(-0.467456775 0.5246589321 -0.9466460783)
(1.557206364 0.7534238157 0.001061220366)
(2.511555475 0.9954289192 0.7706281834)
(2.162582943 0.8802526322 1.106561989)
(0.8493674837 0.3318444747 0.5565747774)
(-24.05136158 0.2877161367 -4.139197659)
(-15.17416185 0.05320270391 -3.039348138)
(-8.100026114 0.1438981664 -2.01424532)
(-3.573731027 0.3723401929 -1.051509894)
(-0.1933617107 0.5784006258 -0.01129638471)
(1.726870548 0.8213544504 0.7928529571)
(2.565522194 0.9650431097 1.280334152)
(2.128595745 0.7948153092 1.281087544)
(0.8201047895 0.2979920548 0.564765975)
(-23.91039437 -0.742604135 -2.998019998)
(-14.93136519 -0.5247785784 -1.727859479)
(-7.780470234 -0.1789053836 -0.6858678712)
(-3.238184003 0.1233669975 0.1391272667)
(0.06028739762 0.3164178981 0.9560279181)
(1.866294442 0.4360836063 1.44857247)
(2.620526714 0.4776242349 1.617995205)
(2.119419888 0.4239484531 1.368292108)
(0.8040348212 0.1850798461 0.558746362)
(-23.78181256 -1.66115765 -2.065315899)
(-14.80390783 -1.086859886 -1.01295598)
(-7.724812808 -0.602341779 -0.3169856814)
(-3.296376578 -0.3367990061 0.1191728705)
(-0.06084957221 -0.2061936168 0.6479867969)
(1.762831355 -0.1421367619 1.016606188)
(2.585098427 -0.08467939212 1.260242177)
(2.121819353 0.04748015018 1.217824828)
(0.8036867724 0.07629266359 0.5395799544)
(-23.70662687 -2.528771646 -2.202937115)
(-14.87874514 -1.644381492 -1.642074066)
(-7.994182756 -0.9845177515 -1.325351003)
(-3.724848349 -0.6435555444 -1.086191045)
(-0.4902827505 -0.4303329727 -0.6081059632)
(1.437586765 -0.2782404744 -0.07901100982)
(2.394275781 -0.1598352317 0.5145557132)
(2.058282543 0.009077534371 0.9233400719)
(0.7940213097 0.07105410256 0.5059519149)
(-23.64179806 -3.455452846 -3.140108853)
(-15.01804613 -2.301974307 -2.792446047)
(-8.299562225 -1.43908995 -2.485519872)
(-4.111450594 -0.9683891368 -2.111220069)
(-0.8495705922 -0.635180892 -1.516260175)
(1.134268465 -0.3492487069 -0.8293180542)
(2.141189618 -0.1007408096 -0.01503299613)
(1.914495408 0.1121316752 0.6873102484)
(0.7553155527 0.120227633 0.4708587329)
(-23.52830733 -4.543502172 -4.074875718)
(-15.07168176 -3.133134366 -3.593453172)
(-8.470439189 -2.055013344 -3.108635204)
(-4.339548581 -1.453267605 -2.606354039)
(-1.098557038 -1.023506246 -1.966529076)
(0.8543780419 -0.6174492048 -1.225138958)
(1.834054576 -0.1956903071 -0.3038109854)
(1.684403219 0.1427062127 0.5527685074)
(0.6757125658 0.1524974697 0.4495531529)
(-23.34462823 -5.733836328 -4.68739602)
(-15.03930673 -4.003027966 -4.051177629)
(-8.588200384 -2.660553852 -3.502337322)
(-4.588505061 -1.896355004 -3.058076475)
(-1.454492504 -1.356254999 -2.497273731)
(0.4163002956 -0.8727906212 -1.728440924)
(1.380170549 -0.3434119964 -0.6516742762)
(1.369035312 0.10145228 0.3978617582)
(0.5752318151 0.152471667 0.420502207)
(-23.09684419 -6.951768018 -5.074451632)
(-14.97461882 -4.856906299 -4.408738936)
(-8.739644262 -3.226830825 -3.924544742)
(-4.952459583 -2.278155586 -3.632564697)
(-1.98855734 -1.585248878 -3.215942949)
(-0.1981160028 -1.018207178 -2.454949635)
(0.8189738924 -0.4368895224 -1.192836192)
(1.045678607 0.0574356131 0.1360049389)
(0.4978991853 0.142420495 0.361171787)
(-24.28200134 2.105725835 -6.572667859)
(-15.88253635 0.9298436938 -5.476540197)
(-9.230917684 0.3386480165 -4.399861453)
(-4.923140479 0.1575690398 -3.323569233)
(-1.440356583 -0.01695493528 -1.990731853)
(0.8031465914 0.02960070398 -0.6464051191)
(2.003640401 0.2604345537 0.5749547683)
(1.9368288 0.3985660672 1.363106832)
(0.809356552 0.1867471778 0.7928082879)
(-24.27342392 1.193686255 -6.312947058)
(-15.77826009 0.3454087171 -5.094959535)
(-9.036871707 0.004847357963 -3.895858479)
(-4.650374211 0.003804046478 -2.692362941)
(-1.126573822 0.001236110365 -1.252032872)
(1.113924784 0.1696539201 0.12328424)
(2.256902509 0.422412844 1.229470302)
(2.065159357 0.5062281485 1.707663511)
(0.8376233199 0.2273679399 0.8661454879)
(-24.21959425 0.1138183496 -5.800005045)
(-15.61584821 -0.2445530814 -4.413270917)
(-8.782837105 -0.2306770572 -3.097419136)
(-4.338926021 -0.0210674371 -1.840123332)
(-0.823807691 0.1118585707 -0.4161536858)
(1.359321692 0.2756546273 0.8236036586)
(2.432487824 0.4145911 1.712791287)
(2.146117545 0.4420695156 1.924224114)
(0.8524602223 0.2083372032 0.9039015287)
(-24.14934648 -0.7644791038 -5.368830582)
(-15.53089157 -0.6328940035 -4.022251671)
(-8.739824014 -0.3176829543 -2.851408861)
(-4.386329033 -0.001453686122 -1.834827507)
(-0.9603049696 0.1653847569 -0.6597063779)
(1.169491018 0.2692354874 0.3885205149)
(2.261492026 0.3045724094 1.262377634)
(2.034525474 0.3209720899 1.663990865)
(0.8106301675 0.1728619482 0.8401265411)
(-24.10060788 -1.566294725 -5.390155624)
(-15.57565607 -1.037603872 -4.29730447)
(-8.939949895 -0.4939868881 -3.40138692)
(-4.7600393 -0.1064106865 -2.658920382)
(-1.434662091 0.1143995047 -1.697644885)
(0.6650410966 0.2597234427 -0.6967505321)
(1.809377319 0.3354227481 0.3529995869)
(1.737397373 0.3776854202 1.1694741)
(0.7089948291 0.208536207 0.72216608)
(-24.04586022 -2.478407205 -5.768491577)
(-15.64598588 -1.653547516 -4.858299564)
(-9.154147691 -0.9150436184 -4.067709423)
(-5.093440162 -0.438200076 -3.366476739)
(-1.825621578 -0.141799083 -2.427419656)
(0.2392307236 0.08668217662 -1.368517988)
(1.373972995 0.2865142672 -0.19418925)
(1.40346273 0.4346921713 0.8432345431)
(0.5842748971 0.2557670365 0.6320407489)
(-23.9356515 -3.553139672 -6.182875471)
(-15.64682306 -2.448419136 -5.296788073)
(-9.268761822 -1.492591586 -4.489625204)
(-5.296544094 -0.8974473539 -3.76976571)
(-2.094786722 -0.5277080538 -2.839922348)
(-0.09903570258 -0.2351093424 -1.733810004)
(0.9764446812 0.08632914285 -0.4623685919)
(1.050282999 0.3790125787 0.6810036311)
(0.4384754749 0.2612092055 0.5804596053)
(-23.75124902 -4.72202828 -6.499142673)
(-15.57831703 -3.292074361 -5.606905345)
(-9.340171907 -2.078708035 -4.832751656)
(-5.509015686 -1.336791779 -4.211919376)
(-2.443287798 -0.8768083422 -3.404626072)
(-0.5664606213 -0.5330858639 -2.29824134)
(0.4500285022 -0.1374523876 -0.8597608429)
(0.62101787 0.2527600227 0.4852836077)
(0.2747733812 0.2234062444 0.5271709185)
(-23.49987276 -5.92450801 -6.736532205)
(-15.47220943 -4.142274704 -5.876388546)
(-9.425357331 -2.666265793 -5.204207385)
(-5.806763783 -1.777070335 -4.773193161)
(-2.942632607 -1.200756683 -4.188273687)
(-1.194857759 -0.7809598701 -3.173598749)
(-0.1608721539 -0.3297091043 -1.54210009)
(0.2291817927 0.1070505595 0.1516104937)
(0.1601256914 0.162629886 0.4451657908)
(-24.11865033 3.677542576 -8.688804346)
(-16.2429779 1.879764786 -7.466592864)
(-10.10995096 0.8161448358 -6.234828488)
(-6.145601859 0.4144344258 -4.994340539)
(-2.787599162 0.07946247815 -3.357480357)
(-0.4286397183 -0.03115895864 -1.520468491)
(1.078933542 -0.01089738443 0.2352386367)
(1.406202109 0.02389652698 1.49083717)
(0.640204882 0.006271863759 0.9647023615)
(-24.20392016 2.791735252 -8.605811757)
(-16.23457866 1.294085408 -7.313489732)
(-10.03009287 0.4574892871 -6.013338565)
(-6.013133582 0.201514934 -4.718696131)
(-2.586767509 -0.007373919479 -3.034848569)
(-0.132670421 -0.008754349667 -1.119564103)
(1.435616804 0.1117946201 0.7199022)
(1.683186199 0.198599271 1.87507011)
(0.7373212933 0.09933508525 1.093964315)
(-24.2801601 1.661273346 -8.473044963)
(-16.20700623 0.6015774056 -7.094031358)
(-9.928749394 0.1064621365 -5.717322115)
(-5.866341027 0.07595956112 -4.373864896)
(-2.396327382 0.04392839044 -2.67169033)
(0.09922400316 0.139809111 -0.7558870195)
(1.683106371 0.2853432145 1.0826196)
(1.863173965 0.3709070269 2.1369384)
(0.7976158328 0.1906880192 1.177407921)
(-24.30882334 0.6179280419 -8.368008214)
(-16.18112966 0.0247830805 -6.97071957)
(-9.900151234 -0.120142074 -5.618214895)
(-5.888557224 0.05127936707 -4.367946036)
(-2.49395942 0.1448807758 -2.8134716)
(-0.09263395228 0.2651126953 -1.069876189)
(1.446821385 0.3814191802 0.6852827508)
(1.671952175 0.4686833173 1.844035904)
(0.7225758771 0.2538614851 1.081834185)
(-24.29625683 -0.3866471378 -8.364461311)
(-16.16563157 -0.5489697745 -7.029587883)
(-9.944788992 -0.3959688217 -5.776536693)
(-6.051169983 -0.08671776058 -4.680762813)
(-2.792300703 0.07765793526 -3.305578875)
(-0.5473346678 0.2038816834 -1.719080144)
(0.8974473279 0.3493697659 -0.03241851955)
(1.210861693 0.5241122352 1.298202462)
(0.5408493558 0.3112703998 0.8932077666)
(-24.23545008 -1.431386547 -8.453587133)
(-16.13188192 -1.221761642 -7.192937977)
(-9.987728407 -0.8166216723 -6.014412731)
(-6.202335442 -0.3960142758 -4.997882006)
(-3.050172073 -0.1690722124 -3.694002809)
(-0.9287670099 -0.02626071289 -2.129265979)
(0.4071651706 0.1751774997 -0.4469326934)
(0.75643514 0.47537017 0.9466154566)
(0.3501751583 0.3256296496 0.7523860809)
(-24.11768643 -2.539189156 -8.579339104)
(-16.05982805 -1.979194944 -7.368901205)
(-10.00302889 -1.32196232 -6.240609293)
(-6.323883441 -0.7739631548 -5.286053839)
(-3.274475924 -0.4667397726 -4.052902576)
(-1.258605277 -0.2887399607 -2.489734946)
(-0.01246338151 -0.03842846035 -0.7332586688)
(0.3551092054 0.35147417 0.7415893311)
(0.1759945299 0.292046995 0.6680005743)
(-23.94233868 -3.687191813 -8.709054312)
(-15.95278705 -2.769990194 -7.540687855)
(-10.0103847 -1.849582278 -6.483830208)
(-6.472455617 -1.16118301 -5.656566479)
(-3.571123405 -0.7560309386 -4.5947381)
(-1.689354717 -0.5154981439 -3.118366912)
(-0.5090230725 -0.2153397105 -1.23403886)
(-0.06084244279 0.2075303214 0.4690737887)
(0.01138748169 0.2277450103 0.5827360626)
(-23.71176742 -4.853763466 -8.824664811)
(-15.81750706 -3.578103944 -7.692744508)
(-10.02522114 -2.404889799 -6.725165517)
(-6.678443491 -1.590801282 -6.083249856)
(-3.980572834 -1.084338894 -5.300315795)
(-2.250991486 -0.7511166115 -4.056874242)
(-1.062596724 -0.3708727641 -2.084086009)
(-0.4108726385 0.06905805626 -0.01099751319)
(-0.09226809198 0.1538643769 0.4451004305)
(-23.21501788 5.414366167 -11.12953684)
(-16.07297948 3.149802642 -9.695960227)
(-10.66246288 1.622032284 -8.260170316)
(-7.256249999 0.940751199 -6.932356525)
(-4.278856126 0.428085993 -5.108362712)
(-2.025684937 0.2032125273 -2.791660298)
(-0.26260402 0.06720398967 -0.3679766507)
(0.6034619433 -0.1059157293 1.478689125)
(0.3862905454 -0.1054556413 1.080008965)
(-23.38140666 4.574118712 -11.12242092)
(-16.13635801 2.575679554 -9.650450104)
(-10.64731618 1.251499745 -8.166897542)
(-7.205602073 0.7033381018 -6.812803995)
(-4.193504291 0.2976782774 -5.004430641)
(-1.859313522 0.1396233289 -2.694955152)
(0.0251713292 0.08931416989 -0.1748832814)
(0.9095691755 0.0324585361 1.751728796)
(0.5182298463 -0.005984019227 1.214643036)
(-23.56382319 3.458485552 -11.10898091)
(-16.19796133 1.829352148 -9.594028737)
(-10.62392584 0.7937453461 -8.063148362)
(-7.152903851 0.4373985398 -6.691917023)
(-4.116009764 0.1834224228 -4.912970083)
(-1.728519334 0.1238879098 -2.630370554)
(0.2311969636 0.1793025696 -0.04745341245)
(1.117335455 0.2500833182 1.93936668)
(0.6050427766 0.1370333925 1.307428706)
(-23.68635191 2.351358148 -11.10105197)
(-16.22404605 1.107323132 -9.564131164)
(-10.59686273 0.3737350215 -8.018710264)
(-7.136970446 0.211574094 -6.669943871)
(-4.14316759 0.09447612884 -4.96363121)
(-1.839206849 0.09711119674 -2.792283269)
(0.03795210691 0.2155200428 -0.3000027382)
(0.9206231 0.4050018076 1.70228773)
(0.5196150576 0.2539786435 1.211198782)
(-23.74843628 1.246465438 -11.11365266)
(-16.21437826 0.3871430117 -9.579974141)
(-10.56492952 -0.0544043397 -8.048807651)
(-7.151341406 -0.04574947737 -6.745896795)
(-4.244454217 -0.05823960832 -5.118396508)
(-2.091557313 -0.04013609716 -3.055825015)
(-0.3903159969 0.1036434042 -0.7054426723)
(0.4594783304 0.4207931765 1.258138734)
(0.3123226808 0.3103372597 1.009199267)
(-23.75079817 0.1321153307 -11.15004123)
(-16.17067617 -0.3534738415 -9.634767894)
(-10.52669959 -0.5193298048 -8.13055535)
(-7.179570337 -0.3587298768 -6.877607232)
(-4.362186324 -0.2736083009 -5.316503837)
(-2.331885949 -0.2334062736 -3.309903953)
(-0.7839283594 -0.07741791823 -1.027212132)
(0.01520316676 0.3240454492 0.9004065844)
(0.1047551735 0.2975345431 0.8347513376)
(-23.69530192 -0.9963180039 -11.20206629)
(-16.0959285 -1.11603209 -9.709092737)
(-10.48551043 -1.012612503 -8.240907826)
(-7.2266634 -0.701922098 -7.060918024)
(-4.512266139 -0.5059052886 -5.612719192)
(-2.592003766 -0.4069481929 -3.703390744)
(-1.144448449 -0.2252414329 -1.431400421)
(-0.3516378501 0.2003800466 0.5661988127)
(-0.06023027639 0.2463496249 0.6908234733)
(-23.58394646 -2.136035517 -11.25793595)
(-15.9923819 -1.893687247 -9.784636372)
(-10.44354617 -1.526284717 -8.361750121)
(-7.299558851 -1.071928139 -7.292081645)
(-4.71901692 -0.7628969559 -6.039335853)
(-2.929253859 -0.5764345099 -4.340928487)
(-1.545969652 -0.3316977002 -2.102694382)
(-0.684281785 0.09893786522 0.08466821635)
(-0.1905948486 0.1897652119 0.5152313891)
(-23.41774168 -3.283130079 -11.30296198)
(-15.86110823 -2.684505699 -9.835380429)
(-10.40409778 -2.068326857 -8.45087535)
(-7.411101329 -1.496539043 -7.511369055)
(-5.008840911 -1.099115815 -6.52875495)
(-3.375013981 -0.820933124 -5.185890769)
(-2.011310565 -0.4610124741 -3.104788553)
(-0.9814369854 0.01695649148 -0.6670257812)
(-0.2773173886 0.1447894497 0.2520055482)
(-20.35581902 6.788554108 -13.82094483)
(-14.66888352 4.518660332 -11.92235741)
(-10.4358334 2.681979494 -10.05949134)
(-7.863921994 1.651076999 -8.674331046)
(-5.566302167 0.8725912264 -6.952178284)
(-3.717815559 0.432607298 -4.60485596)
(-1.994176132 0.1588531961 -1.86380724)
(-0.6394134735 -0.1362829699 0.5307405104)
(-0.0543139829 -0.1494242666 0.7554314149)
(-20.58585848 6.053223608 -13.83230133)
(-14.80264124 3.989739077 -11.92835809)
(-10.46952054 2.306092585 -10.03929927)
(-7.834339501 1.380584948 -8.61320205)
(-5.512702216 0.7096766084 -6.876987485)
(-3.643050487 0.3472950442 -4.55313261)
(-1.84102773 0.1498457933 -1.780642303)
(-0.4262542273 -0.0344024739 0.7025502818)
(0.05291526698 -0.06595243182 0.8614743857)
(-20.85640841 5.06418471 -13.84702934)
(-14.95127094 3.281408769 -11.93505978)
(-10.49649753 1.809497937 -10.01602904)
(-7.794379624 1.029129628 -8.550415155)
(-5.455194844 0.4958080069 -6.811388207)
(-3.576455626 0.2326611122 -4.524577994)
(-1.724735159 0.1512915935 -1.736888722)
(-0.2778311143 0.1389625492 0.8159309944)
(0.1242499979 0.07002802432 0.9341873347)
(-21.07213828 4.063093777 -13.86281029)
(-15.05603376 2.568137831 -11.94491452)
(-10.4980258 1.316948872 -10.00610376)
(-7.755658286 0.6858139712 -8.52318686)
(-5.429048151 0.2809614117 -6.805731514)
(-3.600333445 0.09758516653 -4.585719741)
(-1.81994416 0.1129640828 -1.873088217)
(-0.4160361007 0.2726337591 0.6544148023)
(0.05312362466 0.1905523175 0.8574536646)
(-21.23245312 3.050600978 -13.88189622)
(-15.11878672 1.848143436 -11.96310994)
(-10.47872505 0.8225022947 -10.01661969)
(-7.72395689 0.3408514639 -8.537793186)
(-5.43789355 0.05848993283 -6.862285276)
(-3.694027633 -0.06236107151 -4.721261422)
(-2.052669844 0.009118848733 -2.122740074)
(-0.7426552074 0.2968711373 0.3205982342)
(-0.1148684157 0.2483485478 0.68232761)
(-21.33730413 2.026672764 -13.90476009)
(-15.14225451 1.118967022 -11.98917228)
(-10.44411629 0.320486086 -10.04470392)
(-7.704349619 -0.0132086076 -8.588925515)
(-5.479416066 -0.1710933156 -6.979466266)
(-3.820643378 -0.2185459514 -4.934195946)
(-2.300454155 -0.1037314353 -2.440224261)
(-1.073495096 0.2451714702 -0.06451816693)
(-0.285238614 0.2447866646 0.4826669292)
(-21.38712443 0.9918120084 -13.92945709)
(-15.12938011 0.3799329554 -12.0176276)
(-10.39838646 -0.1913286816 -10.08013753)
(-7.69875996 -0.3805883158 -8.664666613)
(-5.55337139 -0.4140358624 -7.160992745)
(-3.983915728 -0.3730174864 -5.276081894)
(-2.550912193 -0.2045884782 -2.920903688)
(-1.354533208 0.1621957365 -0.5623478904)
(-0.4202777525 0.2050559081 0.2501311767)
(-21.38280648 -0.05203243749 -13.95236493)
(-15.08290127 -0.3675094651 -12.0400506)
(-10.34379192 -0.7142531783 -10.10712803)
(-7.706415169 -0.7711191393 -8.741150639)
(-5.659845697 -0.6981882622 -7.382517813)
(-4.19741836 -0.5745444309 -5.744302738)
(-2.84261434 -0.3297331494 -3.618751632)
(-1.628834792 0.07009522181 -1.25638976)
(-0.5367685652 0.1586354182 -0.05269890865)
(-21.32547335 -1.101559014 -13.96860552)
(-15.00574235 -1.120743007 -12.04447853)
(-10.28638821 -1.250202174 -10.10080106)
(-7.743424165 -1.19904616 -8.775737134)
(-5.83488746 -1.061683998 -7.584663588)
(-4.514687169 -0.8954708572 -6.276668279)
(-3.236663754 -0.572586656 -4.504290038)
(-1.938605584 -0.09512273273 -2.150870675)
(-0.6453640479 0.08931404398 -0.4304997496)
(-16.30089364 7.419394468 -15.93888933)
(-12.51668714 5.543017983 -13.48968479)
(-9.625999736 3.634934783 -11.11259401)
(-7.904147632 2.320655778 -9.640607122)
(-6.331586412 1.302555974 -8.164579615)
(-4.990204318 0.6096931401 -6.195569952)
(-3.575599143 0.1812416503 -3.787096621)
(-2.014685705 -0.1624311924 -1.380775205)
(-0.6099745386 -0.1623397739 -0.1334261563)
(-16.56204365 6.83166447 -15.94062055)
(-12.70924933 5.094951665 -13.50528194)
(-9.712917794 3.281901734 -11.13177062)
(-7.892876511 2.026700728 -9.624742989)
(-6.277765916 1.101570404 -8.098902612)
(-4.93991249 0.5152664851 -6.107358544)
(-3.506258485 0.185018627 -3.673030366)
(-1.909613591 -0.06380527749 -1.218570322)
(-0.5518757958 -0.08910877271 -0.04018125983)
(-16.8831435 6.036756084 -15.94531063)
(-12.9379488 4.486015841 -13.52635471)
(-9.802512578 2.804304385 -11.15299131)
(-7.865624806 1.637303136 -9.602921737)
(-6.211101878 0.8365735117 -8.030133789)
(-4.88610588 0.3813903853 -6.034245246)
(-3.447706681 0.1863426452 -3.597212668)
(-1.836787136 0.09286676147 -1.113488191)
(-0.5153357677 0.03019873022 0.02078445772)
(-17.1622645 5.225189156 -15.95309539)
(-13.12448444 3.860854494 -13.54720646)
(-9.855934054 2.317645 -11.16891395)
(-7.826073249 1.250963271 -9.584652715)
(-6.160626598 0.5748560069 -7.996746406)
(-4.871321606 0.2360707128 -6.044069394)
(-3.48113382 0.1652547552 -3.6788198)
(-1.91535397 0.2324578438 -1.237211814)
(-0.5634791335 0.1445324437 -0.04437517836)
(-17.39765632 4.397510665 -15.96310586)
(-13.26939329 3.220906187 -13.56685528)
(-9.878795511 1.823310151 -11.18117145)
(-7.782609584 0.8657606646 -9.575231121)
(-6.133245988 0.3134872026 -8.003493203)
(-4.898901137 0.08067252744 -6.135052803)
(-3.590971757 0.1109138975 -3.895995094)
(-2.106047292 0.3015554048 -1.54705962)
(-0.6731155012 0.2134008471 -0.2116107759)
(-17.58808257 3.554564874 -15.97432616)
(-13.37411341 2.567539421 -13.58426279)
(-9.876517129 1.321671294 -11.1898079)
(-7.74037383 0.4776290731 -9.573667378)
(-6.128428115 0.04608413957 -8.043087215)
(-4.958262996 -0.08399556123 -6.289244878)
(-3.733757641 0.03568450296 -4.20586005)
(-2.327354134 0.3023881374 -1.970027314)
(-0.7976606364 0.2303164776 -0.4387123184)
(-17.73273096 2.697771391 -15.98570056)
(-13.44075505 1.902652155 -13.5979899)
(-9.854320227 0.8134961511 -11.19197323)
(-7.702735227 0.08265582338 -9.571395513)
(-6.142670969 -0.2389784927 -8.098968262)
(-5.03859881 -0.2803162659 -6.491116509)
(-3.888651562 -0.08913533767 -4.606777139)
(-2.541367669 0.2154602214 -2.501351915)